3
Lattice="15.59272884364642 0.0 0.0 0.0 15.59272884364642 0.0 0.0 0.0 15.59272884364642" Properties=species:S:1:pos:R:3:forces:R:3 config_type=qcd dft_energy=-3.27172302 gap_energy=-3.67721280349525 relaxed_gap_energy=-3.8030840018502854 energy=-3.8030840018502854 free_energy=-3.8030840018502854 pbc="T T T"
Ag       8.29180537       7.69374312       6.35037195       0.00010285       0.00017505      -0.00036484
Ag       7.44644686       9.16426013       8.39096894       0.00000831      -0.00014314       0.00002232
Ag       7.65084104       6.53109001       8.64775237      -0.00011116      -0.00003191       0.00034252
3
Lattice="16.67570256686291 0.0 0.0 0.0 16.67570256686291 0.0 0.0 0.0 16.67570256686291" Properties=species:S:1:pos:R:3:forces:R:3 config_type=qcd dft_energy=-3.25842035 gap_energy=-3.3298202887130994 relaxed_gap_energy=-3.5593784517917673 energy=-3.5593784517917673 free_energy=-3.5593784517917673 pbc="T T T"
Ag       8.33785281       8.33785011       8.33785010      -0.00002893       0.00000760       0.00001876
Ag      10.51739694       7.91332557       6.96271924       0.00000100      -0.00000118      -0.00000088
Ag       6.15830410       8.76237817       9.71298452       0.00002793      -0.00000642      -0.00001787
3
Lattice="30.0 0.0 0.0 0.0 30.0 0.0 0.0 0.0 30.0" Properties=species:S:1:pos:R:3:forces:R:3 config_type=qcd dft_energy=-3.22690726 gap_energy=-3.4391888746648203 relaxed_gap_energy=-3.803084018156442 energy=-3.803084018156442 free_energy=-3.803084018156442 pbc="T T T"
Ag       7.12401145       7.68604315       9.15928071       0.00018558       0.00007936      -0.00015858
Ag       9.37289047       7.27001058       7.81364073      -0.00007133      -0.00008976       0.00008573
Ag       8.14905751       9.61926282       7.65821004      -0.00011425       0.00001040       0.00007285
4
Lattice="15.612415 0.0 0.0 0.0 15.612415 0.0 0.0 0.0 15.612415" Properties=species:S:1:pos:R:3:forces:R:3 config_type=qcd dft_energy=-5.47807342 gap_energy=-5.409268834772307 relaxed_gap_energy=-5.48984689242471 energy=-5.48984689242471 free_energy=-5.48984689242471 pbc="T T T"
Ag       8.39685717       8.65323255       6.80673607      -0.00013881      -0.00017804       0.00023684
Ag       6.11575041       9.27505314       8.05203021       0.00021360      -0.00017830      -0.00005198
Ag       9.49621337       6.33694432       7.55976997      -0.00022592       0.00018166       0.00002684
Ag       7.21600905       6.95959999       8.80629375       0.00015113       0.00017468      -0.00021169
5
Lattice="18.55922184051447 0.0 0.0 0.0 18.55922184051447 0.0 0.0 0.0 18.55922184051447" Properties=species:S:1:pos:R:3:forces:R:3 config_type=qcd dft_energy=-7.374033 gap_energy=-7.249439439960953 relaxed_gap_energy=-7.264029746792397 energy=-7.264029746792397 free_energy=-7.264029746792397 pbc="T T T"
Ag       5.65024467       6.11219332       4.82627234       0.00045032      -0.00004600       0.00028623
Ag       8.20389535       5.22002809       4.64167454      -0.00023014       0.00012765      -0.00014642
Ag       4.82642727       7.35594010       7.15317960      -0.00012105      -0.00000900      -0.00014786
Ag       7.48776284       6.42412752       6.95224054      -0.00024496      -0.00006929       0.00013488
Ag       6.59410696       7.65187846       9.18750777       0.00014583      -0.00000336      -0.00012683
6
Lattice="16.676517 0.0 0.0 0.0 16.676517 0.0 0.0 0.0 16.676517" Properties=species:S:1:pos:R:3:forces:R:3 config_type=qcd dft_energy=-9.90202576 gap_energy=-9.0895242233089 relaxed_gap_energy=-9.098595614030483 energy=-9.098595614030483 free_energy=-9.098595614030483 pbc="T T T"
Ag       6.83423298       8.09577832       8.89284110      -0.00009831      -0.00014190       0.00043244
Ag      11.23887985       8.80638327       7.26826670      -0.00001951       0.00017743      -0.00025345
Ag       6.51675292       6.16606910       7.01897429      -0.00015771       0.00013783      -0.00027271
Ag       8.89739649       7.45539790       7.09893858       0.00003816      -0.00053831      -0.00011499
Ag       7.25988368      10.04158334      10.72845996      -0.00055289       0.00012304      -0.00005046
Ag       9.28240508       9.46433907       9.02207037       0.00079025       0.00024191       0.00025917
7
Lattice="24.75881783974838 0.0 0.0 0.0 24.75881783974838 0.0 0.0 0.0 24.75881783974838" Properties=species:S:1:pos:R:3:forces:R:3 config_type=qcd dft_energy=-11.68879548 gap_energy=-11.384012210860881 relaxed_gap_energy=-11.399668948527921 energy=-11.399668948527921 free_energy=-11.399668948527921 pbc="T T T"
Ag      14.64889714      12.37940892      12.37940892      -0.00049413       0.00000000       0.00000000
Ag      13.11099871      14.66421545      12.37940892       0.00002064       0.00006721       0.00000000
Ag      13.11099870      10.09460241      12.37940892       0.00002065      -0.00006720       0.00000000
Ag      10.51731468      13.76061238      12.37940892       0.00012038      -0.00001160       0.00000000
Ag      10.51731466      10.99820544      12.37940892       0.00012038       0.00001161       0.00000000
Ag      12.37516927      12.37940892      13.98159614       0.00010604      -0.00000000      -0.00013747
Ag      12.37516927      12.37940892      10.77722170       0.00010604      -0.00000000       0.00013747
8
Lattice="16.590064 0.0 0.0 0.0 16.590064 0.0 0.0 0.0 16.590064" Properties=species:S:1:pos:R:3:forces:R:3 config_type=qcd dft_energy=-14.11447889 gap_energy=-13.197801770421734 relaxed_gap_energy=-13.216247831752751 energy=-13.216247831752751 free_energy=-13.216247831752751 pbc="T T T"
Ag       6.82146495       7.48342991      10.59944713      -0.00009459      -0.00021900       0.00040787
Ag       9.20305204       8.79564796       6.87548339       0.00015018       0.00012611      -0.00057337
Ag       8.58797469      11.13314670       8.30622533       0.00010765       0.00028799       0.00012096
Ag       8.11392594       6.54628930       8.28846414       0.00020697      -0.00022992      -0.00004067
Ag       6.89788382       7.49170694       5.93940958      -0.00015277      -0.00007991       0.00000629
Ag       6.70639950       9.04812637       8.26991647       0.00000604       0.00039970       0.00017395
Ag       9.15679777       8.78995418       9.74649959      -0.00060900      -0.00008424      -0.00038972
Ag      10.87275728       7.07195464       8.33481038       0.00038552      -0.00020072       0.00029469
8
Lattice="24.88015892684534 0.0 0.0 0.0 24.88015892684534 0.0 0.0 0.0 24.88015892684534" Properties=species:S:1:pos:R:3:forces:R:3 config_type=qcd dft_energy=-14.09714188 gap_energy=-13.337532827460084 relaxed_gap_energy=-13.412780782132689 energy=-13.412780782132689 free_energy=-13.412780782132689 pbc="T T T"
Ag      11.39903937      13.81376580      13.25288850      -0.00053153      -0.00002762       0.00035310
Ag      11.24864187      12.16274871      10.97833264       0.00004480       0.00049268      -0.00008147
Ag      10.36383672      11.19079965      13.49513718       0.00037813      -0.00024070      -0.00032612
Ag      13.09062073      11.72219086      14.08152638      -0.00037400      -0.00021323       0.00031702
Ag      12.41313628       9.82159638      12.08398573      -0.00021250      -0.00024421       0.00044630
Ag      14.21078699      14.20202540      13.30271060       0.00074578       0.00032814       0.00031749
Ag      14.02216510      12.06127583      11.44740481       0.00021494      -0.00006060      -0.00049126
Ag      12.77240866      14.54623309      10.87864988      -0.00026563      -0.00003446      -0.00053507
9
Lattice="18.15169090023318 0.0 0.0 0.0 18.15169090023318 0.0 0.0 0.0 18.15169090023318" Properties=species:S:1:pos:R:3:forces:R:3 config_type=qcd dft_energy=-15.69084785 gap_energy=-15.409447474236778 relaxed_gap_energy=-15.456423768733604 energy=-15.456423768733604 free_energy=-15.456423768733604 pbc="T T T"
Ag       7.53621896      11.44782565      10.62479047       0.00001023      -0.00058490       0.00039333
Ag       8.53297379       8.82909697      11.23667521      -0.00034156       0.00012918      -0.00000018
Ag       9.90808949       9.22040276       7.65650889      -0.00017832      -0.00053771       0.00025536
Ag       8.70417644       6.98345701       9.03906202       0.00022857       0.00035298      -0.00011225
Ag      10.19686352      10.76602607      10.03441802       0.00021103       0.00017316      -0.00090178
Ag       7.28398794       9.36017535       8.76172374       0.00063016       0.00059080      -0.00033514
Ag      11.06340640       8.12202818      10.06913229      -0.00028969      -0.00010650      -0.00014572
Ag       8.59005010      11.70006181       7.93430207       0.00000874      -0.00077327       0.00041495
Ag      11.12057162       6.71916611       7.64224651      -0.00027916       0.00075626       0.00043142
9
Lattice="16.642151 0.0 0.0 0.0 16.642151 0.0 0.0 0.0 16.642151" Properties=species:S:1:pos:R:3:forces:R:3 config_type=qcd dft_energy=-15.66021985 gap_energy=-15.418385471154831 relaxed_gap_energy=-15.554914161200216 energy=-15.554914161200216 free_energy=-15.554914161200216 pbc="T T T"
Ag       6.83377835       8.32107898       9.93309412       0.00072416       0.00001097      -0.00012654
Ag      10.73697242       6.93790370       7.60444286      -0.00006276       0.00014619      -0.00001107
Ag       8.32106914       6.25577026       8.81044983       0.00000908       0.00003419       0.00028026
Ag      10.73698023       9.70423514       7.60444044      -0.00007914      -0.00015123      -0.00000404
Ag       9.80837136       8.32107123       9.93309770      -0.00072400       0.00001202      -0.00014372
Ag       5.90517501       6.93791724       7.60444239       0.00004249       0.00012989      -0.00001831
Ag       5.90518050       9.70424528       7.60443968       0.00005921      -0.00013481      -0.00001126
Ag       8.32107330       8.32107131       6.98482318       0.00002150       0.00002906      -0.00022876
Ag       8.32107919      10.38638636       8.81044929       0.00000946      -0.00007627       0.00026345
10
Lattice="30.0 0.0 0.0 0.0 30.0 0.0 0.0 0.0 30.0" Properties=species:S:1:pos:R:3:forces:R:3 config_type=qcd dft_energy=-17.9647024 gap_energy=-17.476240726083272 relaxed_gap_energy=-17.52083249685011 energy=-17.52083249685011 free_energy=-17.52083249685011 pbc="T T T"
Ag       8.20657580       8.04495164      11.38960780       0.00091824       0.00037334       0.00006707
Ag      10.72166086       9.22280259      11.27695527      -0.00071440      -0.00058341       0.00007925
Ag      10.76993042      12.10399941      11.50054036      -0.00023660       0.00025312      -0.00003959
Ag       8.51876967      10.78924177      10.53726748      -0.00012780      -0.00027823      -0.00020866
Ag      12.95299676      10.74758891      10.51728659       0.00076949      -0.00018801       0.00007971
Ag       6.79435587       9.00034036       9.23012595       0.00032468       0.00004181      -0.00017839
Ag       9.52694315       8.47535834       8.85461526      -0.00064256       0.00013340       0.00013740
Ag      10.72766498      11.00751193       8.82621081      -0.00034559       0.00013411      -0.00004238
Ag       8.21615470      10.75912865       7.66279418      -0.00010747       0.00009566      -0.00003414
Ag      12.30253392       8.58666254       8.94218241       0.00016203       0.00001821       0.00013972
10
Lattice="30.0 0.0 0.0 0.0 30.0 0.0 0.0 0.0 30.0" Properties=species:S:1:pos:R:3:forces:R:3 config_type=qcd dft_energy=-17.9556759 gap_energy=-17.293512762014398 relaxed_gap_energy=-17.39641983085275 energy=-17.39641983085275 free_energy=-17.39641983085275 pbc="T T T"
Ag       9.37476713       8.13577644       9.94180796      -0.00019594       0.00015287       0.00018776
Ag       8.36667194       5.77424465       8.67916936      -0.00011748       0.00009435      -0.00046717
Ag       7.51096702       8.78889896      11.93651617       0.00017540      -0.00010233      -0.00029776
Ag      10.50431335       7.18309551       7.56880016       0.00024369      -0.00040700       0.00021582
Ag       6.67622740       7.97676031       9.31102721      -0.00003923       0.00003873       0.00012305
Ag       6.52100406      10.11610220       7.42659912      -0.00007987      -0.00009911       0.00010442
Ag       7.81955360       7.70455852       6.64717991       0.00015916      -0.00021525       0.00022205
Ag       7.85413131      10.55793998       9.83820902       0.00011134      -0.00000059      -0.00040232
Ag      10.14647315       8.57823553       5.20759975      -0.00027095      -0.00003751      -0.00005262
Ag       9.35968212       9.80540303       7.60616336       0.00001388       0.00057585       0.00036677
11
Lattice="30.0 0.0 0.0 0.0 30.0 0.0 0.0 0.0 30.0" Properties=species:S:1:pos:R:3:forces:R:3 config_type=qcd dft_energy=-19.88031844 gap_energy=-19.607235038792055 relaxed_gap_energy=-19.68411852039263 energy=-19.68411852039263 free_energy=-19.68411852039263 pbc="T T T"
Ag      12.12491984       7.63973152      10.78893416       0.00037167      -0.00057092      -0.00069769
Ag      11.45188742      10.34301268      10.94211286       0.00002020       0.00069203       0.00016645
Ag      10.60751046       8.83631717       8.75407388      -0.00052018      -0.00024790      -0.00017008
Ag       9.64220923       8.38232578      11.88094914      -0.00015815       0.00018755       0.00071774
Ag       9.86427300       6.30622557       9.87617851      -0.00006145      -0.00006793       0.00041573
Ag       8.00827630       8.35694793       9.64066195       0.00000454      -0.00059922       0.00001773
Ag      10.99391130      11.67278957       8.48780778       0.00053733       0.00031085      -0.00018382
Ag      10.54124038      12.98044077      10.93585064      -0.00087516      -0.00030378       0.00026283
Ag       8.71902056      10.85513253      10.74009218       0.00033152       0.00017085      -0.00024405
Ag       8.50901699      10.55306959       7.97676652      -0.00007189       0.00040458      -0.00041329
Ag       8.54753790      13.13072373       9.00592407       0.00042156       0.00002388       0.00012846
11
Lattice="20.46027138024292 0.0 0.0 0.0 20.46027138024292 0.0 0.0 0.0 20.46027138024292" Properties=species:S:1:pos:R:3:forces:R:3 config_type=qcd dft_energy=-19.8715564 gap_energy=-19.43190869786998 relaxed_gap_energy=-19.551034804480537 energy=-19.551034804480537 free_energy=-19.551034804480537 pbc="T T T"
Ag       9.63646629       7.58783508       4.77247036      -0.00029821      -0.00015579      -0.00010904
Ag      10.67181642       9.29334554       6.76794699      -0.00000595       0.00049598       0.00039104
Ag       7.85786329       9.08852493       6.36407122      -0.00028131       0.00073940      -0.00050277
Ag       7.57977449       6.27788786       6.14276970       0.00056908      -0.00038916       0.00013111
Ag       9.99094876       6.68555203       7.48116401      -0.00054550      -0.00066470      -0.00034349
Ag       5.77524848       7.69112026       7.83148187       0.00016883      -0.00047566       0.00032113
Ag       6.52644375      10.35823552       8.48963979      -0.00004956       0.00005774       0.00018726
Ag       7.75069434       6.18960285       9.05909354      -0.00004648      -0.00086134       0.00009754
Ag       5.16717622       6.06156432      10.12134471       0.00028710       0.00077070      -0.00021638
Ag       8.90022471       8.84813969       8.95152394      -0.00010610       0.00034751       0.00091749
Ag       6.61832715       8.39317581      10.49347775       0.00030810       0.00013531      -0.00087388
11
Lattice="20.6511372232322 0.0 0.0 0.0 20.6511372232322 0.0 0.0 0.0 20.6511372232322" Properties=species:S:1:pos:R:3:forces:R:3 config_type=qcd dft_energy=-19.85149306 gap_energy=-19.723086854480243 relaxed_gap_energy=-19.80609075826981 energy=-19.80609075826981 free_energy=-19.80609075826981 pbc="T T T"
Ag      10.06842142      12.06972318       7.39752236       0.00051739      -0.00045588       0.00012274
Ag      10.80844831      11.97350097      10.17911380       0.00020881      -0.00015476      -0.00080889
Ag       8.13190452      11.25534372       9.19811699      -0.00009052       0.00021925       0.00016253
Ag       8.66064473      11.24265692      11.96067455      -0.00000283       0.00052580       0.00016826
Ag      12.64768694      11.37014758       8.04591835      -0.00047333       0.00028317       0.00023512
Ag      12.93425056       9.95587064      10.40688391      -0.00012505      -0.00005807      -0.00028325
Ag       8.35738158       8.78535586      10.52438357      -0.00051177      -0.00072207      -0.00022919
Ag       9.15721279       8.74784957      13.27206775      -0.00031267      -0.00038228       0.00046416
Ag      10.51301599       9.58284572       8.78176293       0.00025602       0.00059970      -0.00033762
Ag      11.30287560      10.52775769      12.62547769       0.00032796       0.00044301       0.00065872
Ag      10.99941231       8.07020288      11.18933282       0.00020599      -0.00029787      -0.00015259
12
Lattice="18.739121 0.0 0.0 0.0 18.739121 0.0 0.0 0.0 18.739121" Properties=species:S:1:pos:R:3:forces:R:3 config_type=qcd dft_energy=-22.29074116 gap_energy=-21.678033687478923 relaxed_gap_energy=-21.81286077185912 energy=-21.81286077185912 free_energy=-21.81286077185912 pbc="T T T"
Ag       8.73154527       9.09130300       7.30254352       0.00041524      -0.00012344      -0.00048269
Ag      10.15242893       7.79351376       9.36737030       0.00006543       0.00010561      -0.00052768
Ag       8.74766888       9.09290942      11.44179958      -0.00007591       0.00010755       0.00041962
Ag       6.13598766       9.89901424       7.97562458       0.00067539      -0.00020229      -0.00026235
Ag      11.41849542       8.39388091       6.86954949      -0.00025873      -0.00011271      -0.00013202
Ag       6.14713106       9.89992715      10.78791044       0.00007941      -0.00007455       0.00042052
Ag      10.75861058      10.95885814      10.77097495       0.00019257       0.00000007       0.00021573
Ag       7.32559986       7.75201911       9.37792466      -0.00041917       0.00011144       0.00025409
Ag      11.43781084       8.39614615      11.85470644      -0.00018038      -0.00012382       0.00029671
Ag      10.74780206      10.95767835       7.95577057       0.00008185      -0.00028584       0.00025850
Ag      12.50518074       9.26308076       9.35762194      -0.00046183       0.00056437      -0.00037749
Ag       8.32646470      10.93639505       9.37292953      -0.00011388       0.00003360      -0.00008294
13
Lattice="18.317452 0.0 0.0 0.0 18.317452 0.0 0.0 0.0 18.317452" Properties=species:S:1:pos:R:3:forces:R:3 config_type=qcd dft_energy=-24.31277094 gap_energy=-23.933145660929966 relaxed_gap_energy=-23.97193378195907 energy=-23.97193378195907 free_energy=-23.97193378195907 pbc="T T T"
Ag       9.18487696      10.79265948       9.42577736       0.00012137      -0.00008271      -0.00005270
Ag      10.99606632      11.36080774      11.47942650      -0.00029081      -0.00001747      -0.00025249
Ag       9.70659656      11.49057262       6.77833064      -0.00013048       0.00029310       0.00017273
Ag      11.32680801       9.07253126       9.98250731       0.00044216       0.00017611      -0.00047302
Ag      11.77773895      11.45646505       8.64259118       0.00057971       0.00022969       0.00011952
Ag       9.15872600       9.15872600      11.79467967       0.00000000       0.00000000      -0.00027276
Ag       9.13257504       7.52479252       9.42577736      -0.00012137       0.00008271      -0.00005270
Ag       7.78500491       9.43848729       7.32574618       0.00067678       0.00027138       0.00062234
Ag      10.53244709       8.87896471       7.32574618      -0.00067678      -0.00027138       0.00062234
Ag       6.53971305       6.86098695       8.64259118      -0.00057971      -0.00022969       0.00011952
Ag       6.99064399       9.24492074       9.98250731      -0.00044216      -0.00017611      -0.00047302
Ag       8.61085544       6.82687938       6.77833064       0.00013048      -0.00029310       0.00017273
Ag       7.32138568       6.95664426      11.47942650       0.00029081       0.00001747      -0.00025249
13
Lattice="19.976224 0.0 0.0 0.0 19.976224 0.0 0.0 0.0 19.976224" Properties=species:S:1:pos:R:3:forces:R:3 config_type=qcd dft_energy=-24.26369354 gap_energy=-24.062111362648096 relaxed_gap_energy=-24.083111236543424 energy=-24.083111236543424 free_energy=-24.083111236543424 pbc="T T T"
Ag      10.16903182      12.72141243      12.39637608      -0.00008019       0.00048438       0.00005020
Ag       8.37768685       8.20267264       9.98811200       0.00028416       0.00037924      -0.00000000
Ag       8.78256594      10.48899196      11.44832490       0.00016962      -0.00060765      -0.00032367
Ag       8.78256594      10.48899196       8.52789910       0.00016962      -0.00060765       0.00032367
Ag      10.16903182      12.72141243       7.57984792      -0.00008019       0.00048438      -0.00005020
Ag      11.11542753      11.53623609       9.98811200       0.00038483      -0.00064710       0.00000000
Ag      11.13696472       8.73771659       9.98811200       0.00020289      -0.00015901      -0.00000000
Ag      11.34595541      10.15371811       7.53540927      -0.00026026      -0.00039068       0.00018531
Ag      11.34595541      10.15371811      12.44081473      -0.00026026      -0.00039068      -0.00018531
Ag       9.85847192       7.79437244       7.65967363      -0.00014176       0.00019383       0.00014083
Ag      10.18043738       6.09793341       9.98811200       0.00010308       0.00069127      -0.00000000
Ag       8.72288931      12.95390738       9.98811200      -0.00034978       0.00037583       0.00000000
Ag       9.85847192       7.79437244      12.31655037      -0.00014176       0.00019383      -0.00014083
14
Lattice="18.500695 0.0 0.0 0.0 18.500695 0.0 0.0 0.0 18.500695" Properties=species:S:1:pos:R:3:forces:R:3 config_type=qcd dft_energy=-26.87056045 gap_energy=-26.17344810201393 relaxed_gap_energy=-26.252858544388605 energy=-26.252858544388605 free_energy=-26.252858544388605 pbc="T T T"
Ag       8.55088826       9.49607526      11.43719733       0.00008293      -0.00042421       0.00059979
Ag      11.36464137       9.72876068      11.60075106       0.00002149      -0.00020267       0.00014903
Ag       7.44966662       6.80045905      11.70808240       0.00030966       0.00051726       0.00033410
Ag      10.14825133       7.20871741      11.28481377      -0.00023827      -0.00010708      -0.00013387
Ag       6.37534022       8.60493095       9.91410262       0.00020787      -0.00009445      -0.00027439
Ag       8.52729339       7.07206555       9.00460417       0.00040134      -0.00048714       0.00018916
Ag      10.71319403       8.85213174       9.06464057      -0.00031366       0.00015968       0.00006468
Ag       8.28652800      10.32431823       8.75619690      -0.00051532       0.00033813      -0.00071439
Ag      12.56512260      10.97662815       9.37180553      -0.00045625       0.00010786       0.00018896
Ag      10.04552770      11.78934616      10.27126757       0.00013469      -0.00007756       0.00012828
Ag      10.59840710      11.08430314       7.41145913       0.00010712      -0.00015687      -0.00068403
Ag       8.26930619      10.69496183       5.94597658       0.00016757      -0.00006747       0.00044955
Ag       6.94572596       8.51529866       7.15730669       0.00032521       0.00053062      -0.00010544
Ag       9.66497223       8.35686820       6.57666071      -0.00023440      -0.00003611      -0.00019144
14
Lattice="30.0 0.0 0.0 0.0 30.0 0.0 0.0 0.0 30.0" Properties=species:S:1:pos:R:3:forces:R:3 config_type=qcd dft_energy=-26.86237527 gap_energy=-26.090864413509156 relaxed_gap_energy=-26.23093336217488 energy=-26.23093336217488 free_energy=-26.23093336217488 pbc="T T T"
Ag       9.44006355      11.32830874       8.94570628      -0.00054330      -0.00040086       0.00050377
Ag      12.18313232      11.53338396       9.40345228      -0.00013315       0.00036415       0.00018407
Ag      11.34145835      10.46101296       6.91499231       0.00035715       0.00015031      -0.00083883
Ag      10.45720107      11.37083788      11.61140867      -0.00007485       0.00021011       0.00080316
Ag       9.54512893       8.63149212      11.61140867       0.00007485      -0.00021011       0.00080316
Ag      11.31368748       9.51547960      13.61859966      -0.00020736      -0.00019424      -0.00030491
Ag       8.68864252      10.48685040      13.61859966       0.00020736       0.00019424      -0.00030491
Ag      13.29329894       9.09543675       8.45376544       0.00019490      -0.00010685      -0.00035372
Ag      10.56226645       8.67402126       8.94570628       0.00054330       0.00040086       0.00050377
Ag       8.66087165       9.54131704       6.91499231      -0.00035715      -0.00015031      -0.00083883
Ag      12.34170558       9.25300657      11.06023036      -0.00055149      -0.00052835       0.00000646
Ag       7.81919768       8.46894604       9.40345228       0.00013315      -0.00036415       0.00018407
Ag       7.66062442      10.74932343      11.06023036       0.00055149       0.00052835       0.00000646
Ag       6.70903106      10.90689325       8.45376544      -0.00019490       0.00010685      -0.00035372
15
Lattice="30.0 0.0 0.0 0.0 30.0 0.0 0.0 0.0 30.0" Properties=species:S:1:pos:R:3:forces:R:3 config_type=qcd dft_energy=-28.7862582 gap_energy=-28.32674391467596 relaxed_gap_energy=-28.440216956731355 energy=-28.440216956731355 free_energy=-28.440216956731355 pbc="T T T"
Ag      12.78433832       7.56859054      10.34285016      -0.00045984       0.00052396       0.00002105
Ag      10.66331456       8.52482439       8.81015593       0.00039966      -0.00016042       0.00044211
Ag       8.18852976       7.00316116       8.94058692      -0.00003404      -0.00014207       0.00026137
Ag      10.17446677       6.73730409      10.96283306      -0.00033144       0.00004563      -0.00020191
Ag       8.38897056       9.46979009       7.51806026       0.00005841      -0.00011268      -0.00013227
Ag      12.57021583      10.33989587       9.92594791       0.00006232      -0.00028370       0.00021746
Ag      10.28161256      11.32498619       8.47047975       0.00042260       0.00012560      -0.00018319
Ag       6.21232402       8.99667185       9.25594201      -0.00007887      -0.00001233       0.00010685
Ag      12.34897870      11.68872213      12.44891627      -0.00017523       0.00012216      -0.00016340
Ag       8.61544658       9.10662974      10.73030223       0.00055195       0.00010302      -0.00056209
Ag      11.12915709       9.19592395      12.02433431      -0.00014608      -0.00010513      -0.00058159
Ag      11.84632223      13.06514377      10.04698416       0.00015761      -0.00027338      -0.00006115
Ag       9.15052439      13.71841114       9.50200089      -0.00026527       0.00064890      -0.00009148
Ag       7.60518417      11.39684360       9.45993175      -0.00034585      -0.00034580       0.00049099
Ag       9.78372482      11.60621179      11.30378473       0.00018407      -0.00013374       0.00043725
15
Lattice="30.0 0.0 0.0 0.0 30.0 0.0 0.0 0.0 30.0" Properties=species:S:1:pos:R:3:forces:R:3 config_type=qcd dft_energy=-28.76979828 gap_energy=-28.36982511309897 relaxed_gap_energy=-28.432075666606853 energy=-28.432075666606853 free_energy=-28.432075666606853 pbc="T T T"
Ag      10.62883663       8.66862541      12.74171455       0.00001661      -0.00005968      -0.00019392
Ag       8.03261167       7.61306597      12.69179270      -0.00063116       0.00031286      -0.00043959
Ag       9.67554829       7.55147896      10.41121501      -0.00004589       0.00002827       0.00006089
Ag       6.83820628       8.23334037      10.24252154       0.00083165      -0.00020719       0.00046393
Ag      12.66668502       8.10131998      10.87546822      -0.00008832      -0.00028935       0.00057919
Ag      11.35974390       8.62089827       8.51827313       0.00063287      -0.00024215       0.00015479
Ag       8.53652418      10.10377954      11.40937870      -0.00041957      -0.00023147       0.00001843
Ag      11.20950513      10.48259804      10.67303874      -0.00039023      -0.00027099      -0.00024995
Ag       8.72615346       9.43664656       8.51606768      -0.00075098       0.00058411       0.00018149
Ag      13.43144646      10.33866021       8.97077725       0.00042918       0.00047345      -0.00064594
Ag       6.66422998      10.99268529       9.46054011       0.00005219       0.00018495       0.00022782
Ag      10.79835977      11.11051749       7.45349414       0.00033446       0.00047320      -0.00036897
Ag       9.27733700      12.19087447       9.57185081       0.00008554      -0.00040935      -0.00069109
Ag      12.06080530      12.75328520       9.30869550      -0.00017812      -0.00010795       0.00007214
Ag       8.02188143      11.73009874       7.08304641       0.00012177      -0.00023871       0.00083077
16
Lattice="21.62992117066446 0.0 0.0 0.0 21.62992117066446 0.0 0.0 0.0 21.62992117066446" Properties=species:S:1:pos:R:3:forces:R:3 config_type=qcd dft_energy=-31.08713132 gap_energy=-30.58927614814492 relaxed_gap_energy=-30.692347976083003 energy=-30.692347976083003 free_energy=-30.692347976083003 pbc="T T T"
Ag      10.50613717      11.48528849       9.03844485       0.00000232       0.00035409       0.00042285
Ag      10.48505099      11.64441271      12.18345220      -0.00020867      -0.00011818       0.00034475
Ag      13.23991876      11.22125968       8.49471093       0.00016953      -0.00001263       0.00004565
Ag      11.39928454       8.97818801       8.25048789      -0.00004577       0.00006563      -0.00030211
Ag      11.54218940       8.67705750      13.08748609      -0.00006185      -0.00007891      -0.00017371