3
Lattice="30.0 0.0 0.0 0.0 30.0 0.0 0.0 0.0 30.0" Properties=species:S:1:pos:R:3:forces:R:3 config_type=qcd dft_energy=-5.01783099 gap_energy=-4.99132567460352 relaxed_gap_energy=-5.030354387208792 energy=-5.030354387208792 free_energy=-5.030354387208792 pbc="T T T"
Al       6.37341121       7.88191153       7.07360940       0.00015730      -0.00003623       0.00007208
Al       8.41563910       8.93632730       8.34057592      -0.00006507      -0.00022061      -0.00008098
Al       8.40226367       6.37307514       7.77712865      -0.00009223       0.00025684       0.00000890
4
Lattice="16.60752447755221 0.0 0.0 0.0 16.60752447755221 0.0 0.0 0.0 16.60752447755221" Properties=species:S:1:pos:R:3:forces:R:3 config_type=qcd dft_energy=-7.62306803 gap_energy=-7.67170930133849 relaxed_gap_energy=-7.723445640758349 energy=-7.723445640758349 free_energy=-7.723445640758349 pbc="T T T"
Al      10.17100327       9.96137457       8.87639354      -0.00004447       0.00057535      -0.00050109
Al       8.17379468       8.46194182       9.53076635       0.00037255       0.00055413      -0.00067429
Al      10.21523943       7.46574171       8.38457879      -0.00007630      -0.00086734       0.00048679
Al       8.15463032      10.94755780      10.07392801      -0.00025178      -0.00026214       0.00068858
5
Lattice="17.73487210825726 0.0 0.0 0.0 17.73487210825726 0.0 0.0 0.0 17.73487210825726" Properties=species:S:1:pos:R:3:forces:R:3 config_type=qcd dft_energy=-10.56437638 gap_energy=-10.243934736755925 relaxed_gap_energy=-10.350271368308182 energy=-10.350271368308182 free_energy=-10.350271368308182 pbc="T T T"
Al       8.92864689       8.65875629      10.79373673       0.00048129       0.00064896       0.00014576
Al      10.16196103       7.59590666       8.90397238      -0.00059851      -0.00049243      -0.00015751
Al       8.30768411       9.35039130       8.35386395       0.00028147      -0.00014063      -0.00027090
Al       7.54916802      10.76292769      10.37853836      -0.00022276      -0.00035827       0.00000135
Al      10.06135718       8.65835264       6.58871231       0.00005851       0.00034238       0.00028130
5
Lattice="16.9117222475487 0.0 0.0 0.0 16.9117222475487 0.0 0.0 0.0 16.9117222475487" Properties=species:S:1:pos:R:3:forces:R:3 config_type=qcd dft_energy=-10.54498185 gap_energy=-10.251731672797527 relaxed_gap_energy=-11.144847703832017 energy=-11.144847703832017 free_energy=-11.144847703832017 pbc="T T T"
Al       8.44840958       8.26176462      10.03914699       0.00007918       0.00013998      -0.00012914
Al       9.07306852       6.38635033       8.20974555       0.00022022       0.00012745      -0.00004460
Al       7.00541102       7.99236729       7.57810405      -0.00034033       0.00004838      -0.00009904
Al       7.70710396      10.39529342       8.57185295       0.00016449      -0.00016883      -0.00001950
Al       9.71700996       8.91847586       7.55479218      -0.00012356      -0.00014698       0.00029228
6
Lattice="16.88125464030853 0.0 0.0 0.0 16.88125464030853 0.0 0.0 0.0 16.88125464030853" Properties=species:S:1:pos:R:3:forces:R:3 config_type=qcd dft_energy=-14.0183752 gap_energy=-14.356109561568168 relaxed_gap_energy=-14.565586360609464 energy=-14.565586360609464 free_energy=-14.565586360609464 pbc="T T T"
Al      12.05532446      11.69279788      10.55885188       0.00052541       0.00038003      -0.00023360
Al       9.66016671      11.94011677      11.48752879      -0.00018037      -0.00019517       0.00001620
Al      11.43266529       9.39397436       9.56459071      -0.00017160      -0.00015181       0.00004499
Al       9.03729309       9.64126999      10.49331656       0.00036271      -0.00005348       0.00025138
Al      11.06407663       9.85613971      12.07681458      -0.00041728      -0.00027459       0.00019281
Al      10.02880458      11.47782794       8.97526987      -0.00011887       0.00029503      -0.00027177
7
Lattice="17.00169366294571 0.0 0.0 0.0 17.00169366294571 0.0 0.0 0.0 17.00169366294571" Properties=species:S:1:pos:R:3:forces:R:3 config_type=qcd dft_energy=-17.80935784 gap_energy=-17.126925195313895 relaxed_gap_energy=-17.29878696613352 energy=-17.29878696613352 free_energy=-17.29878696613352 pbc="T T T"
Al       9.59742481       6.52010898       7.02088039      -0.00037158      -0.00033946      -0.00026450
Al      10.08976616       8.77800924       8.18713124       0.00052379       0.00075542       0.00035782
Al       8.22608581      10.61332445       8.23758664       0.00034013       0.00011515       0.00066675
Al       8.88529243       9.33059007      10.44287648      -0.00018743       0.00022593      -0.00069708
Al       8.40923795       7.04615607       9.25995024      -0.00022447       0.00013238      -0.00014630
Al       7.74849888       8.33206848       7.04960712       0.00014032      -0.00078787      -0.00024879
Al       6.54962179       8.88567053       9.30789574      -0.00022076      -0.00010156       0.00033211
8
Lattice="17.99137771569688 0.0 0.0 0.0 17.99137771569688 0.0 0.0 0.0 17.99137771569688" Properties=species:S:1:pos:R:3:forces:R:3 config_type=qcd dft_energy=-20.50179064 gap_energy=-19.710371953238447 relaxed_gap_energy=-20.06383812457281 energy=-20.06383812457281 free_energy=-20.06383812457281 pbc="T T T"
Al       9.88241998      13.44698558       9.46145269       0.00016447      -0.00028006      -0.00010111
Al       9.66841247      12.09896702      11.67574172       0.00016535      -0.00013325      -0.00044466
Al      12.04560103      12.37129728      10.42585616      -0.00022264       0.00042824      -0.00024139
Al      11.84873894      10.98449015      12.66404986       0.00042897       0.00005792       0.00046010
Al      12.28438741       9.74425264      10.30614778      -0.00020287       0.00043859      -0.00030900
Al      10.10392613      10.85907591       9.31747737       0.00022741       0.00010832       0.00058426
Al       9.90747793       9.47192828      11.55577567      -0.00039054      -0.00034420      -0.00000204
Al      12.07069198       8.39688051      12.52083006      -0.00017015      -0.00027557       0.00005384
9
Lattice="17.58054591979444 0.0 0.0 0.0 17.58054591979444 0.0 0.0 0.0 17.58054591979444" Properties=species:S:1:pos:R:3:forces:R:3 config_type=qcd dft_energy=-23.58521166 gap_energy=-23.282265997766853 relaxed_gap_energy=-23.44700533734137 energy=-23.44700533734137 free_energy=-23.44700533734137 pbc="T T T"
Al      10.64477255       8.67744274       6.63939202       0.00091679       0.00000285      -0.00030452
Al       9.02838110       6.74766957       7.12159965       0.00007282      -0.00044448      -0.00046212
Al      10.50961721      10.71358114       8.19044820      -0.00027300      -0.00033241       0.00019303
Al       9.95200361       8.22425324       9.28004999      -0.00002695       0.00027928      -0.00020886
Al       8.16433913       9.32333171       7.68012234       0.00012560       0.00025132       0.00002164
Al       8.76561651      10.57065340      10.04167574      -0.00020128       0.00033906      -0.00011872
Al       7.46593068       7.09185562       9.10357779      -0.00056812      -0.00002281       0.00025537
Al       8.22366205       8.30808774      11.36309295       0.00015970       0.00000202       0.00008881
Al       6.35813380       9.45558148       9.69249798      -0.00020556      -0.00007483       0.00053537
10
Lattice="18.33785652912237 0.0 0.0 0.0 18.33785652912237 0.0 0.0 0.0 18.33785652912237" Properties=species:S:1:pos:R:3:forces:R:3 config_type=qcd dft_energy=-26.69204063 gap_energy=-25.939284298246882 relaxed_gap_energy=-26.297041857675055 energy=-26.297041857675055 free_energy=-26.297041857675055 pbc="T T T"
Al       9.43616439       8.18397912      11.99225326       0.00003940      -0.00035112       0.00013230
Al      10.55676856      10.03009174      10.62758745      -0.00018918      -0.00006704      -0.00008538
Al       7.88228917       9.49604564      10.05845545       0.00040150       0.00021336       0.00002542
Al      10.03961621      11.38396971       6.38543969      -0.00010703      -0.00037773       0.00043863
Al       9.21325853      11.56964249       8.89659264       0.00025266       0.00020383      -0.00009172
Al      11.24445761       9.71834119       8.05822673      -0.00013473       0.00007493      -0.00007787
Al       8.61412793       9.37049068       7.37798321      -0.00036119       0.00034150      -0.00045140
Al       9.83214161       7.71797540       9.25296354       0.00018348       0.00032643       0.00017685
Al       7.66168994       6.79947319      10.74863603      -0.00019124       0.00008412       0.00052745
Al       7.20876870       7.41927350       8.29114466       0.00010632      -0.00044828      -0.00059429
11
Lattice="18.48095779620206 0.0 0.0 0.0 18.48095779620206 0.0 0.0 0.0 18.48095779620206" Properties=species:S:1:pos:R:3:forces:R:3 config_type=qcd dft_energy=-30.06944868 gap_energy=-29.585508099588825 relaxed_gap_energy=-29.75229413581518 energy=-29.75229413581518 free_energy=-29.75229413581518 pbc="T T T"
Al      10.56394166      10.32935801       9.64658396      -0.00011898      -0.00009448       0.00000524
Al      10.04346859      10.26256113       6.93202757       0.00023372      -0.00030551       0.00001031
Al      11.75999125       8.49013280       8.06292365      -0.00030034       0.00010396      -0.00006036
Al       9.81776197       9.35994926      12.05999333       0.00007363      -0.00003371      -0.00005936
Al       9.90848281       7.74592772       9.89026802      -0.00013398       0.00016947       0.00003233
Al       9.36094907       7.57252380       7.18575296       0.00027493       0.00014091       0.00003506
Al       8.85057113      12.05681322       8.43810788       0.00028872       0.00026360       0.00050857
Al       7.53003311       6.85197423       8.92912944       0.00015962      -0.00025286       0.00044857
Al       8.15558141       9.46147373       8.66512180      -0.00089176       0.00020645       0.00027113
Al       7.48596181       8.41233454      11.04453628       0.00024488      -0.00016513      -0.00056495
Al       8.16852508      11.10221946      10.79082299       0.00016955      -0.00003270      -0.00062654
12
Lattice="18.37936185145755 0.0 0.0 0.0 18.37936185145755 0.0 0.0 0.0 18.37936185145755" Properties=species:S:1:pos:R:3:forces:R:3 config_type=qcd dft_energy=-33.51593852 gap_energy=-32.460722345143985 relaxed_gap_energy=-32.70360283003235 energy=-32.70360283003235 free_energy=-32.70360283003235 pbc="T T T"
Al      11.05157014       6.79337262       8.84279795       0.00041698      -0.00033578      -0.00050710
Al       8.68116690       6.83870861      10.03280725      -0.00013445      -0.00004523      -0.00008778
Al      12.00276268       9.25268025       8.47467499       0.00034867      -0.00010394       0.00004385
Al      10.84938243       8.46662769      11.03463723      -0.00005569      -0.00012377       0.00076288
Al       9.36794825       8.85592584       8.42727070      -0.00020331      -0.00007689       0.00000969
Al       6.29716085       7.70605768      10.89300779      -0.00046778      -0.00028624      -0.00023543
Al      10.39917526      11.04741223       7.31507663      -0.00025541       0.00004611      -0.00038694
Al       6.71237535       9.04104221       8.60779628       0.00034854      -0.00019882       0.00030320
Al       8.31003966       9.48624927      10.86428683      -0.00004877       0.00042145       0.00020270
Al      10.53792132      11.00150036      10.12781337       0.00005693       0.00035891      -0.00012932
Al       7.95931308      10.25350658       6.60436093      -0.00022370       0.00018222       0.00020622
Al       8.10735521      11.53308777       9.05164113       0.00021799       0.00016198      -0.00018197
13
Lattice="19.126995 0.0 0.0 0.0 19.126995 0.0 0.0 0.0 19.126995" Properties=species:S:1:pos:R:3:forces:R:3 config_type=qcd dft_energy=-37.61465375 gap_energy=-36.320994932744355 relaxed_gap_energy=-36.40161592825675 energy=-36.40161592825675 free_energy=-36.40161592825675 pbc="T T T"
Al      10.06373210      11.91227405       8.26940182      -0.00004226      -0.00001528      -0.00022979
Al       8.62984027       9.75894617      12.11989648       0.00000310       0.00004616      -0.00013440
Al      12.18685951      10.20355351       9.16865826       0.00000791       0.00008687       0.00023965
Al       9.06299602       7.21708998      10.86463296      -0.00012371      -0.00001883      -0.00018802
Al       8.56738972       7.52182862       8.05229039      -0.00023678      -0.00021156      -0.00000727
Al       6.94118621       8.92037689       9.95487248      -0.00000660      -0.00002236       0.00019455
Al      10.49826450       9.37117744       7.00737711       0.00003243      -0.00004957      -0.00027099
Al      11.30143150       8.87539654      11.55119804      -0.00011564       0.00000506       0.00010207
Al      11.25795390       7.49129944       9.03821425       0.00044355      -0.00013148       0.00011057
Al       7.82950553      10.25234349       7.57243783      -0.00019137       0.00007048       0.00008148
Al      10.56011985      11.60505455      11.07508265      -0.00023565      -0.00015139       0.00004463
Al       7.86277645      11.63266816      10.08770332       0.00037356      -0.00004475       0.00018603
Al       9.56341194       9.56345872       9.56370181       0.00009145       0.00043666      -0.00012852
14
Lattice="19.60817230432632 0.0 0.0 0.0 19.60817230432632 0.0 0.0 0.0 19.60817230432632" Properties=species:S:1:pos:R:3:forces:R:3 config_type=qcd dft_energy=-40.91051535 gap_energy=-39.14869564302227 relaxed_gap_energy=-39.35785671881756 energy=-39.35785671881756 free_energy=-39.35785671881756 pbc="T T T"
Al      10.17445418      12.22830657       8.20311551      -0.00004972      -0.00038219      -0.00022076
Al      12.17343069      10.11092671       8.32082534      -0.00016587       0.00017319       0.00012865
Al       8.93001927      12.44617399      10.71298178       0.00007866       0.00011595      -0.00010239
Al       9.62320326       9.69328827       7.03860394       0.00003847       0.00013579       0.00016305
Al      11.68736515      11.91796958      10.55044785      -0.00029156       0.00001512       0.00000679
Al       7.56541434      10.99429091       8.58795792      -0.00004598       0.00012612      -0.00025106
Al       9.85127629      10.05046377       9.80584525       0.00073315      -0.00015616       0.00005741
Al       9.55713345       8.01422015      11.45678209      -0.00021614       0.00009186       0.00027403
Al      12.19838384       9.16609988      11.04877209       0.00002407       0.00014960      -0.00001520
Al      10.09048838      10.48263129      12.51843155       0.00005043      -0.00010600       0.00005357
Al      10.83487998       7.78648804       8.87651063       0.00050982       0.00016477       0.00001978
Al       7.49624505      10.06645357      11.31917718       0.00024497       0.00002346       0.00010700
Al       8.00677244       8.32858470       9.03936316      -0.00080376      -0.00001530       0.00023766
Al       9.06813980       5.97130872       9.77839185      -0.00010654      -0.00033622      -0.00045851
15
Lattice="19.72937492520786 0.0 0.0 0.0 19.72937492520786 0.0 0.0 0.0 19.72937492520786" Properties=species:S:1:pos:R:3:forces:R:3 config_type=qcd dft_energy=-43.7952815 gap_energy=-42.1804724883984 relaxed_gap_energy=-42.328459175398066 energy=-42.328459175398066 free_energy=-42.328459175398066 pbc="T T T"
Al       7.05367972       8.62038570       6.17510705       0.00047466      -0.00025968      -0.00037559
Al      11.20959331       6.55698394       6.05882542      -0.00048571       0.00013519      -0.00049540
Al       8.40219091      11.02521495       7.18015730       0.00041883      -0.00017131       0.00023036
Al       9.93506946       8.90817827       6.35151993      -0.00006889       0.00000053       0.00032749
Al       6.34733534       6.81950229       8.38088852       0.00024111      -0.00017578       0.00031882
Al       8.71816681       6.41562298       7.06414492      -0.00005666       0.00028372       0.00014124
Al       6.20343581       9.71266114       8.54166501       0.00004901      -0.00002768      -0.00018246
Al       8.56449935       8.56481727       8.56439219      -0.00023097      -0.00021565      -0.00042346
Al      10.78213856      10.31010714       8.74493557      -0.00000145       0.00012024      -0.00010107
Al      10.92590414       7.41909285       8.59118046       0.00040185      -0.00016733      -0.00034559
Al       8.41350452      10.71370516      10.06449590      -0.00073815       0.00024737       0.00041446
Al       8.72625953       6.10309702       9.94652749      -0.00035527       0.00013011       0.00027408
Al       5.92416957      10.57216323      11.07528117      -0.00019900       0.00064580       0.00003037
Al       7.19324836       8.21928970      10.77622559       0.00036822      -0.00050358      -0.00010467
Al      10.07231966       8.51069340      10.95616851       0.00018241      -0.00004195       0.00029143
16
Lattice="19.599911 0.0 0.0 0.0 19.599911 0.0 0.0 0.0 19.599911" Properties=species:S:1:pos:R:3:forces:R:3 config_type=qcd dft_energy=-46.99467792 gap_energy=-45.49001652099603 relaxed_gap_energy=-45.64852731415074 energy=-45.64852731415074 free_energy=-45.64852731415074 pbc="T T T"
Al      10.22360000       6.97613419       9.65733815      -0.00038806      -0.00014452       0.00000701
Al      10.82206218      10.90085196       7.57784328      -0.00013117       0.00014346      -0.00034806
Al      11.83553095       8.18709007      11.47619858       0.00091764       0.00008970      -0.00010921
Al      10.23317112       9.59396346       9.77966012      -0.00053707       0.00030319       0.00001919
Al      10.92669356      10.68717010      12.06568875      -0.00021076       0.00011595       0.00043540
Al      13.34299416       9.29475980       9.68105489      -0.00053682       0.00013210       0.00013348
Al       9.29007882       8.18758489      12.10803948      -0.00023046       0.00008482       0.00046858
Al       7.08730484      12.58425335      10.00137239      -0.00054339       0.00042750       0.00001009
Al       8.25271333      10.55652028      11.45614338       0.00064513      -0.00024327      -0.00022282
Al      12.17598681      11.57218577       9.82961127       0.00042878      -0.00034918       0.00017750
Al       8.17862039      10.71331622       8.29889948       0.00066062      -0.00024208       0.00013925
Al       9.16632298       8.41452273       7.38288874      -0.00015210       0.00015406      -0.00043084
Al      11.74052808       8.35254082       7.87688494       0.00039683      -0.00032594      -0.00027469
Al       9.70221234      12.31801629       9.92529455      -0.00019544       0.00018967       0.00001088
Al       7.83312881       8.29014194       9.77893831      -0.00017336      -0.00025139       0.00002662
Al       5.98833965      10.17023613       9.90343168       0.00004962      -0.00008406      -0.00004237
17
Lattice="20.55536583091173 0.0 0.0 0.0 20.55536583091173 0.0 0.0 0.0 20.55536583091173" Properties=species:S:1:pos:R:3:forces:R:3 config_type=qcd dft_energy=-50.31016891 gap_energy=-48.80792227752993 relaxed_gap_energy=-49.05816730083505 energy=-49.05816730083505 free_energy=-49.05816730083505 pbc="T T T"
Al      12.86419498       9.72029187       9.76558166       0.00003068      -0.00003994      -0.00034518
Al      12.02689568      12.49444911       9.85550912      -0.00018594       0.00009809      -0.00010858
Al      11.17639239      10.68228147       7.75802975       0.00032913      -0.00027318      -0.00014606
Al      13.68778726       8.88000670      12.19104777       0.00037448       0.00009744       0.00006534
Al       8.91686948      11.58200487       6.58604229       0.00047570       0.00020106      -0.00009138
Al      11.95754336      11.03193220      12.16252606       0.00041836      -0.00012660       0.00014242
Al      10.81994304       7.96339792       8.69713102      -0.00057409      -0.00027414       0.00016321
Al       9.38806334      12.48531036       9.14913893      -0.00039994      -0.00009139       0.00015149
Al       8.59774347       9.52304473       8.39331397       0.00031265       0.00026936       0.00059625
Al      10.27718190      10.27760695      10.27779901      -0.00030763      -0.00048578      -0.00023624
Al       9.73637780      12.59319450      11.85722480       0.00017174      -0.00002789       0.00012822
Al      11.16828000       8.06788176      11.40510821       0.00016264       0.00039174      -0.00029338
Al       6.86788721      11.67495489       8.36426115      -0.00008704       0.00012194       0.00028582
Al      11.63828116       8.97165673      13.96832186      -0.00006603       0.00027255      -0.00010690
Al       7.68815234      10.83710737      10.79256221      -0.00021579       0.00007122      -0.00042880
Al       9.38036889       9.87382598      12.79624557      -0.00087511      -0.00005415       0.00047666
Al       8.52864728       8.06166216      10.70076618       0.00043619      -0.00015033      -0.00025290
18
Lattice="20.97387182142369 0.0 0.0 0.0 20.97387182142369 0.0 0.0 0.0 20.97387182142369" Properties=species:S:1:pos:R:3:forces:R:3 config_type=qcd dft_energy=-53.4297162 gap_energy=-51.70076562177739 relaxed_gap_energy=-51.92006129271738 energy=-51.92006129271738 free_energy=-51.92006129271738 pbc="T T T"
Al       9.45417814       8.42370784       8.65155128       0.00002427      -0.00018886      -0.00010622
Al      13.10601791       7.01021047      11.16683745       0.00049070       0.00035199      -0.00023775
Al      12.14381139       8.58003344       9.10760144       0.00022953       0.00023768      -0.00021402
Al      10.53477852       7.76039423      11.31280576      -0.00039329      -0.00018247       0.00033948
Al      14.63002263       9.02798357      10.21888247       0.00008546      -0.00078690      -0.00029471
Al      11.12608909      10.62942561       7.61436568       0.00005301      -0.00020074      -0.00063127
Al       8.71495288      11.07485969       8.89005905       0.00000855       0.00022281      -0.00003365
Al       8.25673252       9.29334207      11.06382531       0.00045253      -0.00005192       0.00011691
Al      12.64581499       9.58791071      12.05951081       0.00028737      -0.00005517       0.00035982
Al      10.69311709      10.31299302      10.44214180      -0.00027315      -0.00046525       0.00074607
Al      10.17037245       9.97738834      13.20168137      -0.00029018      -0.00008954      -0.00059126
Al       6.69176631      11.41662645      10.64999238       0.00026844       0.00025944       0.00040258
Al      13.14127532      11.19943630       9.69463676      -0.00012902      -0.00003169       0.00009204
Al      11.88315312      12.23474638      12.13607833      -0.00029241       0.00016505       0.00038693
Al       7.08656985      13.71444154      11.87374617      -0.00022061       0.00016739      -0.00095702
Al       9.17365900      12.04589488      11.68459439       0.00041777       0.00024025      -0.00013822
Al      10.91710408      12.80813686       9.40746719      -0.00085691       0.00044700       0.00020324
Al       8.39543113      13.66731498       9.58906874       0.00013795      -0.00003907       0.00055706
19
Lattice="21.14407600742862 0.0 0.0 0.0 21.14407600742862 0.0 0.0 0.0 21.14407600742862" Properties=species:S:1:pos:R:3:forces:R:3 config_type=qcd dft_energy=-56.33610623 gap_energy=-55.01503034286451 relaxed_gap_energy=-55.47546236124252 energy=-55.47546236124252 free_energy=-55.47546236124252 pbc="T T T"
Al      13.52889799      12.91819852      10.40575613      -0.00046595      -0.00032974      -0.00022146
Al      11.21087344      12.48930324       9.16086009       0.00077977       0.00027666      -0.00001159
Al      11.05414683      14.42841245      11.10367829      -0.00074786       0.00000908      -0.00014954
Al      12.92880434      10.30046534      10.15220138       0.00028950      -0.00068891       0.00003451
Al      11.15110260      11.97368750      12.15339132       0.00022698      -0.00069540      -0.00051352
Al      11.49996091      10.12660881       7.81583849       0.00013921       0.00031439      -0.00018206
Al       7.53344034      10.34498320      10.39567759       0.00005652      -0.00032783       0.00023290
Al      11.50818971       7.98945390       9.81125212       0.00012960      -0.00005606       0.00000739
Al       8.85920802      11.48663129       8.11131698      -0.00023959      -0.00024256       0.00014514
Al      13.65097985      11.17166102      12.71511998      -0.00020922      -0.00016976       0.00009987
Al       7.17812765       7.69320175      10.05669786      -0.00066406       0.00061812       0.00040744
Al       9.45176812       6.27771239       9.59292790       0.00043808      -0.00022382      -0.00009953
Al      10.22308973      10.33044729      10.34616359      -0.00015689       0.00023369       0.00083628
Al       9.16976445       8.80443090       8.49482278       0.00032459       0.00063565      -0.00031700
Al      12.96737725      13.78936582      12.90007195      -0.00052004      -0.00015567      -0.00016780
Al      11.70797278       9.32560632      12.44933791       0.00023761       0.00048810       0.00045397
Al       9.39482129       8.15260258      11.63619335      -0.00031179       0.00062616      -0.00026600
Al       8.94795772      12.72373331      10.73654282       0.00008880       0.00004954      -0.00011395
Al       8.90223904      10.54221645      12.83087151       0.00060474      -0.00036163      -0.00017505
19
Lattice="20.53939107501526 0.0 0.0 0.0 20.53939107501526 0.0 0.0 0.0 20.53939107501526" Properties=species:S:1:pos:R:3:forces:R:3 config_type=qcd dft_energy=-56.32887619 gap_energy=-55.14607037776182 relaxed_gap_energy=-55.61460203497277 energy=-55.61460203497277 free_energy=-55.61460203497277 pbc="T T T"
Al      12.50771722       8.94720932       9.41078997      -0.00000643       0.00000704       0.00016853
Al       9.97817084       8.00428068       9.01265191      -0.00056393       0.00002548      -0.00029908
Al      12.06109994      11.62488443       9.68705817      -0.00019817      -0.00048058       0.00004219
Al      10.95822444      10.20154071       7.69422076      -0.00012131       0.00014587      -0.00009756
Al      11.27196304       7.67692873      11.40848196       0.00035334       0.00004724       0.00050060
Al       8.61146775       7.26665501      11.27237818       0.00025739      -0.00040500       0.00037192
Al      11.01065151      13.04354855       7.60998318      -0.00055445      -0.00044893       0.00026592
Al       8.22439956       9.68963619       7.72270171       0.00041612       0.00052462      -0.00020493
Al       9.16188325      11.70650195       6.30269899       0.00051819       0.00064510       0.00014704
Al       7.23242782       7.60597525       9.03016491      -0.00022018      -0.00042943      -0.00004164
Al      12.29426237      10.13982234      11.81610082       0.00033208      -0.00076680       0.00030154
Al       9.08642050      11.89601608       9.08281838      -0.00014245      -0.00017968      -0.00032897
Al      11.75150235       8.49549980      13.95843247       0.00029244       0.00040667      -0.00018578
Al       8.07160856       9.83233547      10.46889645       0.00012602       0.00010168       0.00005821
Al       9.49742770       9.33850639      12.70323938      -0.00034699       0.00043787      -0.00055579
Al      10.69484108      13.88396284      10.13040605       0.00009259       0.00017501      -0.00000837
Al       9.63926283      11.75665374      11.63325148      -0.00051491       0.00006031       0.00001764
Al      11.99944686      12.87293133      12.19711170       0.00005191       0.00029183      -0.00023262
Al      11.07143761      11.14132642      13.98282875       0.00022874      -0.00015828       0.00008117
19
Lattice="19.925226 0.0 0.0 0.0 19.925226 0.0 0.0 0.0 19.925226" Properties=species:S:1:pos:R:3:forces:R:3 config_type=qcd dft_energy=-56.30188263 gap_energy=-55.27591628813476 relaxed_gap_energy=-55.68311696456955 energy=-55.68311696456955 free_energy=-55.68311696456955 pbc="T T T"
Al       8.62889129      11.00894035       8.33122061      -0.00045303       0.00006901      -0.00002505
Al       9.80403378      13.45167976       9.12907804      -0.00063083       0.00043132       0.00000789
Al       7.47033658      12.75341893      10.13172122       0.00032522       0.00026535      -0.00008933
Al       5.98150962      10.77852151       9.17885955       0.00040584      -0.00046137       0.00012880
Al      11.26158889      11.16327776       8.54288428       0.00056832       0.00023937       0.00023619
Al       9.81287723      11.88180435      11.36561601      -0.00034893      -0.00010897      -0.00037240
Al       7.68956128      10.24088885      11.26351213      -0.00054353      -0.00026889      -0.00039417
Al       7.50791083       8.62552463       9.02272520      -0.00038179       0.00065206      -0.00012719
Al      10.16882073       8.70812952       7.53515547       0.00005645      -0.00010961       0.00000332
Al       9.91987625       9.29822983      10.09515743       0.00006725       0.00013074       0.00033835
Al      11.33092833       7.45897114      11.32529131      -0.00011609       0.00005714      -0.00010324
Al      12.03001554      10.35183921      11.46364734       0.00043827      -0.00043074       0.00010593
Al      12.61761944       8.91687657       9.19728785      -0.00009019      -0.00051316      -0.00022346
Al       9.88810501       9.57791252      12.89694401       0.00009996      -0.00026496       0.00053613
Al       8.35600161       7.62966615      11.75481757       0.00001331       0.00006862       0.00022047
Al       9.20414510       6.65137706       9.41619465       0.00014698       0.00009910       0.00003760