3
Lattice="14.54839499007842 0.0 0.0 0.0 14.54839499007842 0.0 0.0 0.0 14.54839499007842" Properties=species:S:1:pos:R:3:forces:R:3 config_type=qcd dft_energy=-11.78634408 gap_energy=-11.917252339638164 relaxed_gap_energy=-12.078728302484105 energy=-12.078728302484105 free_energy=-12.078728302484105 pbc="T T T"
As       9.07776908       9.84491314      10.52313431       0.00001632      -0.00021886       0.00001475
As      10.55252298       8.64991058       9.17497299      -0.00013539       0.00001851       0.00013692
As      10.41535384      10.96603197       8.98225958       0.00011907       0.00020035      -0.00015167
4
Lattice="15.66473324263961 0.0 0.0 0.0 15.66473324263961 0.0 0.0 0.0 15.66473324263961" Properties=species:S:1:pos:R:3:forces:R:3 config_type=qcd dft_energy=-17.98121154 gap_energy=-17.81760947830264 relaxed_gap_energy=-17.825650792767018 energy=-17.825650792767018 free_energy=-17.825650792767018 pbc="T T T"
As       5.42821845       5.70177723       5.74175137       0.00000663      -0.00030115      -0.00044540
As       6.85286844       7.71611153       5.84327354      -0.00015623       0.00024499       0.00009636
As       7.73346909       5.54107707       6.61213327      -0.00016202      -0.00020565       0.00010842
As       5.99582148       6.70369586       7.92607654       0.00031162       0.00026181       0.00024061
5
Lattice="16.76316255513259 0.0 0.0 0.0 16.76316255513259 0.0 0.0 0.0 16.76316255513259" Properties=species:S:1:pos:R:3:forces:R:3 config_type=qcd dft_energy=-21.37449223 gap_energy=-21.80569708794277 relaxed_gap_energy=-21.817475818414177 energy=-21.817475818414177 free_energy=-21.817475818414177 pbc="T T T"
As       6.04358685       7.34577361       6.14232047       0.00031320       0.00004962      -0.00066195
As       8.44832954       7.85676120       6.26199303      -0.00037673      -0.00041131      -0.00014166
As       8.22445258       8.89702079       8.51575076       0.00040406       0.00072422       0.00044747
As       8.74288865       6.50135575       8.33279489      -0.00025416       0.00007916      -0.00025540
As       6.37222300       7.23056927       8.57862148      -0.00008636      -0.00044169       0.00061155
6
Lattice="15.332069 0.0 0.0 0.0 15.332069 0.0 0.0 0.0 15.332069" Properties=species:S:1:pos:R:3:forces:R:3 config_type=qcd dft_energy=-26.19673462 gap_energy=-26.904769265529293 relaxed_gap_energy=-26.906314553079252 energy=-26.906314553079252 free_energy=-26.906314553079252 pbc="T T T"
As       6.41854236       6.94445695       6.40154835      -0.00030465      -0.00026007      -0.00060267
As       8.91458859       6.94640635       6.40144827       0.00025706      -0.00018314       0.00008962
As       7.66486600       9.10706135       6.40139615       0.00009402       0.00039069      -0.00060288
As       6.41859209       6.94461191       8.93064639      -0.00032079      -0.00025023       0.00061905
As       8.91463406       6.94648736       8.93067748       0.00024891      -0.00011830      -0.00016737
As       7.66498385       9.10718313       8.93049034       0.00002544       0.00042104       0.00066424
6
Lattice="17.48539636180115 0.0 0.0 0.0 17.48539636180115 0.0 0.0 0.0 17.48539636180115" Properties=species:S:1:pos:R:3:forces:R:3 config_type=qcd dft_energy=-26.16848104 gap_energy=-26.115004454316587 relaxed_gap_energy=-26.20268398962423 energy=-26.20268398962423 free_energy=-26.20268398962423 pbc="T T T"
As       8.43403213      10.34578041       7.79288511       0.00023041       0.00060791      -0.00031253
As       9.70079302       7.03893809       9.15849521       0.00033930      -0.00036496       0.00005553
As       8.02385714      10.32596641      10.25488092      -0.00049882       0.00030605      -0.00050111
As      10.46161231       8.89130807       7.72929571      -0.00052372      -0.00004366      -0.00034686
As      10.30836340      10.77782411       9.35633042      -0.00013520      -0.00060837       0.00068531
As       8.20439413       7.91132084      10.68994372       0.00058803       0.00010304       0.00041965
7
Lattice="17.66582284373864 0.0 0.0 0.0 17.66582284373864 0.0 0.0 0.0 17.66582284373864" Properties=species:S:1:pos:R:3:forces:R:3 config_type=qcd dft_energy=-30.82914023 gap_energy=-30.996069273686285 relaxed_gap_energy=-31.03688268781539 energy=-31.03688268781539 free_energy=-31.03688268781539 pbc="T T T"
As       7.49553659      10.21435654       9.94276855      -0.00012451       0.00017579       0.00004954
As      10.24297809       8.06260652      10.59227175       0.00004427      -0.00006676      -0.00030127
As       9.25130225      11.40654742       8.62304525       0.00013564      -0.00027579      -0.00000051
As       9.94831225       7.60183183       8.15368019       0.00005396       0.00020659       0.00003969
As       9.79356424      10.51779746      10.89504840      -0.00012325       0.00007812      -0.00007438
As      10.09451147       9.75186384       7.11548595      -0.00005002      -0.00009830       0.00024709
As       7.94509306       7.75922155       9.63963996       0.00006392      -0.00001966       0.00003985
8
Lattice="19.46821963518735 0.0 0.0 0.0 19.46821963518735 0.0 0.0 0.0 19.46821963518735" Properties=species:S:1:pos:R:3:forces:R:3 config_type=qcd dft_energy=-35.84014554 gap_energy=-35.99312170228751 relaxed_gap_energy=-36.036624972609104 energy=-36.036624972609104 free_energy=-36.036624972609104 pbc="T T T"
As       3.55742271       6.57355282       5.48380743       0.00010737       0.00039402      -0.00019801
As       6.17679222       4.45734586       4.36029567       0.00042504       0.00011606       0.00035487
As       4.43268791       5.77109836       7.66095002      -0.00060560      -0.00027537       0.00063993
As       6.85047285       6.37519595       7.75616449       0.00030062      -0.00007157       0.00052332
As       5.58275489       6.88591837       4.04243408      -0.00014719       0.00020522      -0.00046962
As       7.40437794       7.53519602       5.63542752      -0.00041128       0.00011796      -0.00050510
As       7.99576792       5.11624937       5.95241778       0.00049578      -0.00042832      -0.00023329
As       4.14980117       4.15487217       5.80130093      -0.00016474      -0.00005800      -0.00011211
9
Lattice="18.10143986811751 0.0 0.0 0.0 18.10143986811751 0.0 0.0 0.0 18.10143986811751" Properties=species:S:1:pos:R:3:forces:R:3 config_type=qcd dft_energy=-40.08302904 gap_energy=-40.365521734164844 relaxed_gap_energy=-40.398943606978975 energy=-40.398943606978975 free_energy=-40.398943606978975 pbc="T T T"
As       8.66365785       8.50753296       8.04140060       0.00012353      -0.00004558      -0.00065388
As      11.35209702      10.27521136       9.97514482       0.00075210      -0.00037573       0.00045367
As      11.24773253       7.16572124      10.22306753      -0.00058420      -0.00009213      -0.00021125
As       9.73077246      12.05317953       9.36062921      -0.00044890       0.00046175      -0.00040735
As      11.09582248       8.52446935       8.19533593       0.00004702       0.00066454      -0.00061200
As       8.20445980      10.97055950       7.72241660       0.00038258      -0.00070726       0.00020976
As       7.97240475       8.72548012      10.49364523      -0.00035716       0.00019370       0.00073657
As       7.52807326      11.18349364      10.12038708       0.00038623      -0.00054475       0.00020535
As      10.12967515       8.83013435      11.62306996      -0.00030120       0.00044546       0.00027912
10
Lattice="20.66232523461327 0.0 0.0 0.0 20.66232523461327 0.0 0.0 0.0 20.66232523461327" Properties=species:S:1:pos:R:3:forces:R:3 config_type=qcd dft_energy=-45.17281462 gap_energy=-44.87193240163691 relaxed_gap_energy=-45.02798490473816 energy=-45.02798490473816 free_energy=-45.02798490473816 pbc="T T T"
As      10.41756689      10.67476276       7.86452924       0.00053680       0.00003670      -0.00032070
As       7.93980092      10.78910822       7.89566183      -0.00082458      -0.00000018      -0.00011144
As       9.09377787       8.69352188       8.58970689       0.00082083       0.00005462       0.00009781
As       9.27449394      12.46478201       9.16607893      -0.00023784       0.00039490       0.00017160
As      12.79096203      10.24631214      10.72282376      -0.00039872       0.00023863       0.00011527
As      11.51944461       8.21082124      11.38990425       0.00027641      -0.00015113       0.00008347
As       9.17064580       9.00314582      11.06876721      -0.00058878      -0.00026362       0.00050219
As       9.22548633      11.42831103      11.44026382       0.00068178       0.00000217       0.00004389
As      11.58647732      11.97066197      12.05684986       0.00029569      -0.00011541      -0.00055209
As      12.29297047       9.83019911      13.11704038      -0.00056158      -0.00019668      -0.00002999
10
Lattice="19.40039565005785 0.0 0.0 0.0 19.40039565005785 0.0 0.0 0.0 19.40039565005785" Properties=species:S:1:pos:R:3:forces:R:3 config_type=qcd dft_energy=-45.15020761 gap_energy=-44.93533758059448 relaxed_gap_energy=-45.016373011876226 energy=-45.016373011876226 free_energy=-45.016373011876226 pbc="T T T"
As      10.02882164       8.14612368       7.24194461      -0.00065823      -0.00038405      -0.00030075
As       7.99057808       8.90651299       6.01273736       0.00034866      -0.00043667       0.00046804
As       9.93811512      10.04595431       8.85629574      -0.00009534       0.00031872      -0.00017547
As       8.09907082      11.01522245       7.45111770       0.00026051      -0.00002370       0.00030942
As       9.65148634       6.01756730       8.43792286       0.00011819       0.00042850      -0.00032310
As       7.39607248       5.36072787       7.66406580       0.00016738      -0.00002308       0.00035664
As       7.61881680      10.25356730       9.75467973      -0.00035995      -0.00037768      -0.00001916
As       7.71837787       6.20239236      10.00581385      -0.00009083      -0.00032863      -0.00014110
As       6.26852404       7.54241079       6.95961898       0.00023148       0.00040217       0.00054894
As       6.33265085       8.17867225       9.37511847       0.00007812       0.00042442      -0.00072344
11
Lattice="21.14940908986906 0.0 0.0 0.0 21.14940908986906 0.0 0.0 0.0 21.14940908986906" Properties=species:S:1:pos:R:3:forces:R:3 config_type=qcd dft_energy=-49.56724731 gap_energy=-49.348184707404045 relaxed_gap_energy=-49.397183087424224 energy=-49.397183087424224 free_energy=-49.397183087424224 pbc="T T T"
As      11.62781417       9.79772275       7.52173744       0.00022176      -0.00024056       0.00008521
As       9.48106799      11.02206153       7.80508114       0.00012729       0.00009010       0.00025113
As       9.55042326       8.55841537       8.14220121       0.00004616      -0.00013997       0.00004833
As       9.60370993      11.97764534      10.12287370      -0.00041228       0.00041867      -0.00063354
As      12.03331516      11.92054193      10.53050630      -0.00029067       0.00010122       0.00011558
As      10.35660347       8.34168849      10.52852801      -0.00027964      -0.00013915      -0.00005325
As      12.48352183       9.60986273       9.89327574       0.00006955      -0.00000091      -0.00001485
As       8.88418119      10.04343238      11.46936682       0.00009710       0.00032389       0.00006782
As      12.13576518      11.70532509      13.04081336       0.00014153       0.00012644      -0.00001711
As      10.10842173      12.87624128      13.60674472       0.00000840      -0.00023494       0.00012884
As      10.05692607      10.46881312      13.66062157       0.00027081      -0.00030478       0.00002185
11
Lattice="21.09709731472297 0.0 0.0 0.0 21.09709731472297 0.0 0.0 0.0 21.09709731472297" Properties=species:S:1:pos:R:3:forces:R:3 config_type=qcd dft_energy=-49.56184802 gap_energy=-49.33306017886272 relaxed_gap_energy=-49.39718250684584 energy=-49.39718250684584 free_energy=-49.39718250684584 pbc="T T T"
As      10.61570360      11.33379049       7.53490662       0.00047235      -0.00031830       0.00003558
As       9.17971381       9.34564589       7.95096757       0.00031520       0.00025752       0.00085574
As       8.35491295      11.63081960       8.52909576      -0.00048336       0.00029643      -0.00061487
As      12.17961982      11.40169620       9.49722609       0.00016579       0.00010089      -0.00075195
As      12.03043583       9.07766022      10.30237876      -0.00010546      -0.00024861       0.00014870
As       9.60389416       8.84921006      10.39342621      -0.00039459       0.00026875      -0.00037337
As       8.76031030      11.18897258      10.98483272      -0.00045114      -0.00022268       0.00003285
As      10.78129681      12.54164087      11.17532946      -0.00005349      -0.00041539       0.00044988
As      12.53003503       9.34132529      12.75989446       0.00033444       0.00024589      -0.00020467
As      11.70815405      11.62787874      13.33501127       0.00004286       0.00017678       0.00048897
As      10.28995886       9.69539529      13.57096631       0.00015741      -0.00014129      -0.00006687
12
Lattice="21.03784890508814 0.0 0.0 0.0 21.03784890508814 0.0 0.0 0.0 21.03784890508814" Properties=species:S:1:pos:R:3:forces:R:3 config_type=qcd dft_energy=-54.58669051 gap_energy=-54.291104227963956 relaxed_gap_energy=-54.336883459506 energy=-54.336883459506 free_energy=-54.336883459506 pbc="T T T"
As       9.49802646      10.44105588       8.47583974       0.00000650       0.00016073      -0.00032975
As       9.40868099      12.91838575       8.68750195      -0.00012226      -0.00019293      -0.00002137
As      11.86364139       9.86968499       8.78924520       0.00038719      -0.00015830      -0.00024896
As      11.83920464       7.64969173       9.91199876      -0.00047920      -0.00007853      -0.00032430
As      11.42063205      13.56367252      10.00963497       0.00020219       0.00023233      -0.00014715
As       8.42730250       9.59790918      10.51621661       0.00031279      -0.00053190       0.00033541
As      12.61026279      11.43937288      10.52108181       0.00024091       0.00046198       0.00017065
As       9.61783445       7.47415436      11.02876186      -0.00040396      -0.00052224      -0.00041096
As       9.19920764      13.38831054      11.12631768      -0.00029247      -0.00017690      -0.00026691
As       9.17340871      11.16782911      12.24803312       0.00005566       0.00032404       0.00059084
As      11.62972310       8.11994816      12.35074096      -0.00039770       0.00018711       0.00000997
As      11.53916871      10.59707833      12.56172078       0.00049035       0.00029462       0.00064254
13
Lattice="19.92697957451726 0.0 0.0 0.0 19.92697957451726 0.0 0.0 0.0 19.92697957451726" Properties=species:S:1:pos:R:3:forces:R:3 config_type=qcd dft_energy=-58.83693796 gap_energy=-58.94827750189981 relaxed_gap_energy=-58.9626781953684 energy=-58.9626781953684 free_energy=-58.9626781953684 pbc="T T T"
As       9.02937054       7.80281591       5.65485437      -0.00031291       0.00011507       0.00042207
As      10.81261744       5.42385863       7.63729235      -0.00063458      -0.00003727       0.00011949
As       8.99411452       5.28894397       5.91408103       0.00016606      -0.00016741       0.00029415
As      10.87255067       7.93969632       7.40292532       0.00030919      -0.00011075      -0.00015851
As       9.10402692      10.78848724       9.04668026       0.00025176      -0.00024489      -0.00019901
As       7.26102957      10.65234775       7.29833935      -0.00004951       0.00008377       0.00008791
As       9.73922170       8.46284334       9.51863762      -0.00046248       0.00020079      -0.00008019
As       6.93905804       8.25613791       6.86335608       0.00009099      -0.00015153      -0.00045681
As       7.34989265      11.00013381      10.85388296       0.00013426      -0.00003732       0.00045856
As       8.48521913       4.97684855       8.30196880       0.00029364       0.00046763      -0.00061925
As       7.56441332       7.36287418       9.08507830       0.00030423      -0.00008664       0.00077949
As       5.53231302      10.86588591       9.12974820      -0.00038677      -0.00008698      -0.00009188
As       6.02035815       8.94564511      10.59014828       0.00029613       0.00005553      -0.00055603
13
Lattice="23.4942880863831 0.0 0.0 0.0 23.4942880863831 0.0 0.0 0.0 23.4942880863831" Properties=species:S:1:pos:R:3:forces:R:3 config_type=qcd dft_energy=-58.81211634 gap_energy=-58.34591502121859 relaxed_gap_energy=-58.47595034583716 energy=-58.47595034583716 free_energy=-58.47595034583716 pbc="T T T"
As      13.63617105      13.20858353       9.42962380      -0.00028343      -0.00005099      -0.00047254
As      14.26532007      10.80216879       9.56376526      -0.00002851       0.00001117       0.00013245
As      15.88251663      12.56356100      10.26125683       0.00031849      -0.00036473      -0.00010869
As      10.34917643      12.44100986      10.74330067       0.00003040       0.00010097       0.00014418
As      10.91136563      10.02904084      11.00885418       0.00001146       0.00004392      -0.00004131
As       8.02036728      12.22813391      11.20384745       0.00001661      -0.00000041       0.00001867
As      14.40074980      13.98788189      11.66840312       0.00001739       0.00027797       0.00027706
As      13.27997235      10.19608122      11.77888743       0.00001630       0.00004296       0.00008313
As      11.02732206      13.15605728      13.03091619      -0.00007150       0.00002895       0.00012620
As      13.35238679      12.25199007      13.12864411      -0.00001188       0.00011686       0.00002617
As       9.83857923       9.41374490      13.15610683       0.00007715      -0.00000270      -0.00005889
As       7.83754007      10.92367821      13.22881455      -0.00012552      -0.00005192      -0.00009152
As       9.91140520      11.51094108      14.51045215       0.00003305      -0.00015202      -0.00003490
14
Lattice="21.21393455184382 0.0 0.0 0.0 21.21393455184382 0.0 0.0 0.0 21.21393455184382" Properties=species:S:1:pos:R:3:forces:R:3 config_type=qcd dft_energy=-63.64259717 gap_energy=-63.22253850238252 relaxed_gap_energy=-63.28972450959304 energy=-63.28972450959304 free_energy=-63.28972450959304 pbc="T T T"
As      13.11843419      10.65271335       9.38452816      -0.00002400       0.00027598       0.00022574
As      11.37014946      12.33015907       8.54813494      -0.00048562      -0.00054599      -0.00030092
As      11.13031696      12.40543723      13.09301480      -0.00014851       0.00055088      -0.00042786
As      12.81757162       9.32696551       7.25276057       0.00024455       0.00031250       0.00047989
As       9.06405277      12.58425199      11.69776601       0.00056246       0.00051576       0.00002741
As       9.49563516      11.58751771      14.87173074       0.00030911      -0.00038028       0.00008951
As      11.11635197      10.96043126       6.43819847      -0.00001278       0.00030999      -0.00025493
As       7.86012000      10.91147089      13.11926500      -0.00021678       0.00029370       0.00008501
As       9.23711226      11.55752481       9.45526541       0.00002693      -0.00055996      -0.00043743
As      10.40043506       8.73648047       7.29565954       0.00009256      -0.00013104       0.00006025
As      11.78236659       9.99342777      12.99779599       0.00006111      -0.00078517       0.00011560
As       9.57803216       9.27760085      13.94428092      -0.00013132      -0.00036122       0.00057704
As       9.65167281       9.14364880       9.67733593       0.00019614       0.00033290       0.00003632
As      11.87529086       9.02991216      10.72180537      -0.00047386       0.00017193      -0.00027562
14
Lattice="19.90907549836838 0.0 0.0 0.0 19.90907549836838 0.0 0.0 0.0 19.90907549836838" Properties=species:S:1:pos:R:3:forces:R:3 config_type=qcd dft_energy=-63.64116129 gap_energy=-63.12918904111706 relaxed_gap_energy=-63.24821298874855 energy=-63.24821298874855 free_energy=-63.24821298874855 pbc="T T T"
As      11.89390949       9.31015720      10.74971293      -0.00012696       0.00000578       0.00011513
As      11.84700037      11.64680035      11.46013028       0.00015824       0.00023209       0.00042481
As      12.93105231      12.74966650       9.44766641      -0.00016146      -0.00022284      -0.00005803
As      11.22643672       9.34385928       8.39190193       0.00064234      -0.00007636      -0.00017439
As      10.14276711       8.15217360      12.04534722       0.00016152      -0.00014033      -0.00004693
As       9.23770396       6.30680208      10.60024594      -0.00046440       0.00015454      -0.00024548
As      10.69699800      13.34750763       8.48031233       0.00029441      -0.00019204      -0.00020210
As       9.67975591      12.61639798      10.65830654       0.00008765      -0.00025708      -0.00016675
As      12.06138493      11.50363207       7.49127370      -0.00025123       0.00036738      -0.00007143
As       7.96356461       7.25327219       8.67140562       0.00029445      -0.00012634       0.00039528
As       8.78368729       9.56029288       8.24960913      -0.00045641       0.00013387       0.00004938
As       7.95090245       9.36687167      12.04082300      -0.00012613      -0.00001792       0.00009803
As       7.98505988      10.90030357      10.13974152      -0.00033189       0.00018240      -0.00000485
As       6.96330546       7.30579149      10.93705194       0.00027989      -0.00004315      -0.00011268
15
Lattice="21.07049696242029 0.0 0.0 0.0 21.07049696242029 0.0 0.0 0.0 21.07049696242029" Properties=species:S:1:pos:R:3:forces:R:3 config_type=qcd dft_energy=-68.04355965 gap_energy=-67.57707474825892 relaxed_gap_energy=-67.6546156516558 energy=-67.6546156516558 free_energy=-67.6546156516558 pbc="T T T"
As      11.73311996      12.17880741       7.46590003      -0.00079334       0.00031964      -0.00002204
As      13.61118440      13.80965922       7.59526764       0.00059908       0.00019777       0.00052030
As      12.80861354      10.95302946       9.39506847      -0.00018471      -0.00032085       0.00037560
As      11.32494046      14.49358988       8.30614967       0.00019970      -0.00079291      -0.00042588
As      14.08979282      13.03349800       9.96426482       0.00053447       0.00037500      -0.00055241
As      10.93593831      10.76221256      10.97918440      -0.00011576      -0.00027937      -0.00005277
As      12.16893721      14.48336359      10.68633060      -0.00028916       0.00016173       0.00011268
As      10.49241076      13.05021983      11.77903688       0.00000765       0.00051682       0.00014489
As      12.18835995       9.66876897      12.84650484      -0.00019747      -0.00030292      -0.00014957
As      11.46624629      13.11107412      14.08073821       0.00017217      -0.00025053       0.00016616
As      10.30989105       9.36811895      14.43442263       0.00026571      -0.00019766      -0.00035610
As      13.43349070      11.61505774      13.77456667      -0.00034725       0.00030441       0.00011419
As       9.82026742      11.67704262      15.25139790      -0.00015313       0.00028052      -0.00000769
As      11.28157189      10.15551261      16.60792500       0.00028593      -0.00006788      -0.00009391
As      13.52599562      10.83080539      16.02400259       0.00001611       0.00005621       0.00022655
16
Lattice="21.30656653883309 0.0 0.0 0.0 21.30656653883309 0.0 0.0 0.0 21.30656653883309" Properties=species:S:1:pos:R:3:forces:R:3 config_type=qcd dft_energy=-73.33761183 gap_energy=-72.61089396305897 relaxed_gap_energy=-72.68620462201005 energy=-72.68620462201005 free_energy=-72.68620462201005 pbc="T T T"
As      11.69036155      12.70296414      11.06791206      -0.00055918       0.00007990      -0.00010845
As       9.33697075      12.54298811      10.28683089       0.00011311       0.00073455      -0.00060154
As       9.53216881      11.89398509       7.93944119      -0.00014123       0.00022273       0.00004356
As      11.59396655      11.97781752      13.39881138       0.00020924      -0.00031006      -0.00027513
As       7.03037339      11.68268850       7.64680175       0.00022792       0.00070695      -0.00052417
As      14.10137781      12.11209609      13.68973960      -0.00046784      -0.00051717       0.00004603
As      14.94788860      10.94321174      11.66144819       0.00002333       0.00050878       0.00051126
As      12.96589622      10.82525262      10.10136667      -0.00002238      -0.00087396      -0.00033751
As      11.77195235       9.41546920      13.36783012       0.00044060      -0.00038895       0.00044306
As       9.71476335       9.33192793       7.90737807      -0.00020517       0.00021740      -0.00025808
As       6.35908484      10.35848979       9.64494446      -0.00075767       0.00025260       0.00037944
As      11.96865622       8.76403217      11.02108982       0.00053677      -0.00072677       0.00037084
As       8.34071717      10.48090469      11.20503770       0.00005004      -0.00045912       0.00063235
As       7.20786267       9.19407497       7.61503257       0.00009683      -0.00072975      -0.00033919
As      14.27382519       9.62296688      13.66148097       0.00008252       0.00057965      -0.00042238
As       9.61666687       8.60366289      10.23738685       0.00037308       0.00070321       0.00043990
17
Lattice="21.47892008294797 0.0 0.0 0.0 21.47892008294797 0.0 0.0 0.0 21.47892008294797" Properties=species:S:1:pos:R:3:forces:R:3 config_type=qcd dft_energy=-77.06376406 gap_energy=-76.53385423560971 relaxed_gap_energy=-76.61802737839602 energy=-76.61802737839602 free_energy=-76.61802737839602 pbc="T T T"
As      14.99376785      11.83224526      13.15122719       0.00005159      -0.00066116       0.00019964
As      13.49692028      10.30821147      11.91695739      -0.00077770      -0.00005651      -0.00006037
As      12.92090058      11.47481359       9.79596554       0.00059093       0.00001813      -0.00009952
As      15.08213795      10.37896028      15.18478294      -0.00043134       0.00057837       0.00062935
As      13.65200583      13.85765134      16.00695345      -0.00010880      -0.00009335      -0.00030927
As      13.48696806      13.76567603      13.63422363       0.00023432      -0.00013243      -0.00011928
As      12.25159847      13.82592289      10.19339837      -0.00005049       0.00002044       0.00012720
As      13.78877472      11.61086525      16.92004743       0.00046438       0.00013880      -0.00057805
As      10.34660821      11.91923663       7.27136215       0.00031744      -0.00006544       0.00031379
As      12.69510873       9.78768787      15.56577907      -0.00000240      -0.00028531       0.00003417
As      11.15156441      12.89150175      13.83708756       0.00020279      -0.00060281      -0.00073972
As      10.98122386      14.19801159       8.04467833      -0.00052634       0.00019936      -0.00000279
As      10.28261266      13.77927329      11.67782821      -0.00038064       0.00049381       0.00068473
As      11.56136888      10.52929404      13.44953559      -0.00014701       0.00054749      -0.00034377
As      10.72014028      10.51532692       9.33697998       0.00045464       0.00024502       0.00008709
As       8.69166846      13.32791986       8.49725203      -0.00000201      -0.00005793      -0.00038104
As       9.02940588      11.97538907      10.60762869       0.00011063      -0.00028648       0.00055785
18
Lattice="21.09753305471077 0.0 0.0 0.0 21.09753305471077 0.0 0.0 0.0 21.09753305471077" Properties=species:S:1:pos:R:3:forces:R:3 config_type=qcd dft_energy=-82.75402798 gap_energy=-81.8602376533915 relaxed_gap_energy=-81.98062460597527 energy=-81.98062460597527 free_energy=-81.98062460597527 pbc="T T T"
As      14.20717362      10.74345311       8.02171063       0.00017529       0.00016067      -0.00039557
As      15.96306258      12.41817120       8.56925666      -0.00022131       0.00003852      -0.00069391
As      15.82795045      10.30169274       9.86971986      -0.00030933      -0.00017861       0.00016225
As      12.38779760      11.26335198       9.70161842      -0.00042702      -0.00021639       0.00014559
As      12.42631675      13.68107698       9.40616182       0.00002390       0.00012679       0.00016814
As      14.78809438      14.10670453       9.99935650       0.00030504       0.00007124       0.00062482
As      14.05024129      10.81308729      11.59532764       0.00072527       0.00030312       0.00004800
As      14.90086142      13.01327281      12.21254654       0.00013996      -0.00006749       0.00048181
As      11.27525006      14.41542858      11.50793285      -0.00009347      -0.00002571      -0.00019005
As       9.60999165      12.54789908      11.61329468      -0.00003414      -0.00030394       0.00005627
As      12.87020334      13.97474118      13.32250833       0.00028251       0.00013004      -0.00024053
As       8.43691034      13.17343427      13.66145843      -0.00012559       0.00025909       0.00004335
As      10.99692121      10.70237013      12.50073249      -0.00009043      -0.00008018       0.00047450
As       7.37238758      10.92073258      14.08195935      -0.00045651      -0.00000185       0.00028994
As      10.10616867      12.70167358      15.53791051      -0.00032264       0.00043898      -0.00065512
As      12.09044789      11.85009198      14.39694076       0.00029651      -0.00026627      -0.00014948
As       9.25758639       9.34348176      13.70978328       0.00010895      -0.00030700      -0.00032386
As       9.00414823      10.45998217      15.91636556       0.00002302      -0.00008101       0.00015387
19