3
Lattice="18.59978587577921 0.0 0.0 0.0 18.59978587577921 0.0 0.0 0.0 18.59978587577921" Properties=species:S:1:pos:R:3:forces:R:3 config_type=qcd dft_energy=-4.25072783 gap_energy=-4.893726308526342 relaxed_gap_energy=-4.9884900790310835 energy=-4.9884900790310835 free_energy=-4.9884900790310835 pbc="T T T"
Au       9.29990262       9.29992663       9.29989614      -0.00002809      -0.00002418       0.00000996
Au      11.41780655       8.88607170       7.96280604       0.00002852       0.00000926      -0.00001412
Au       7.18196964       9.71368048      10.63697664      -0.00000043       0.00001492       0.00000416
4
Lattice="17.33775403313518 0.0 0.0 0.0 17.33775403313518 0.0 0.0 0.0 17.33775403313518" Properties=species:S:1:pos:R:3:forces:R:3 config_type=qcd dft_energy=-6.94098183 gap_energy=-7.233162311964839 relaxed_gap_energy=-7.250431464491412 energy=-7.250431464491412 free_energy=-7.250431464491412 pbc="T T T"
Au       8.60911508      10.73897539       9.28736202       0.00000807       0.00009656       0.00003124
Au      10.16889135       6.07078430       9.26211213      -0.00003317       0.00005414      -0.00003375
Au       7.05460025       9.69310650       7.45199236       0.00002098      -0.00004089      -0.00000663
Au       8.84290138       8.17264188       8.67404156       0.00000411      -0.00010981       0.00000914
4
Lattice="18.44054 0.0 0.0 0.0 18.44054 0.0 0.0 0.0 18.44054" Properties=species:S:1:pos:R:3:forces:R:3 config_type=qcd dft_energy=-6.93821958 gap_energy=-7.310970908272025 relaxed_gap_energy=-7.34892607286256 energy=-7.34892607286256 free_energy=-7.34892607286256 pbc="T T T"
Au       7.53407725      10.77645492       9.28445713       0.00091281      -0.00032669      -0.00008458
Au      10.90631548       7.66397946       9.15589391      -0.00021471       0.00047298      -0.00000738
Au      10.12388158      10.21134937       8.92652716      -0.00052636      -0.00004279       0.00007164
Au       8.31680568       8.22929625       9.51420182      -0.00017173      -0.00010350       0.00002032
5
Lattice="16.30262831551145 0.0 0.0 0.0 16.30262831551145 0.0 0.0 0.0 16.30262831551145" Properties=species:S:1:pos:R:3:forces:R:3 config_type=qcd dft_energy=-9.45214579 gap_energy=-9.798271554838303 relaxed_gap_energy=-9.809800352561142 energy=-9.809800352561142 free_energy=-9.809800352561142 pbc="T T T"
Au      10.36918518       7.22034725      10.86105132       0.00000042      -0.00007894       0.00010473
Au       9.02573720      10.05810321       7.47881708      -0.00001919      -0.00000943      -0.00002096
Au      10.63149620       8.08001165       8.36492160       0.00002166       0.00005266      -0.00007863
Au       7.22220442      11.09617349       9.12450314      -0.00003379       0.00004941      -0.00001949
Au       8.74813789       9.16232398      10.08801891       0.00003089      -0.00001370       0.00001434
6
Lattice="18.90071792113256 0.0 0.0 0.0 18.90071792113256 0.0 0.0 0.0 18.90071792113256" Properties=species:S:1:pos:R:3:forces:R:3 config_type=qcd dft_energy=-12.75250444 gap_energy=-12.45877267274651 relaxed_gap_energy=-12.463755161144624 energy=-12.463755161144624 free_energy=-12.463755161144624 pbc="T T T"
Au       7.43789614       7.38011513      10.38303565       0.00017787      -0.00018108      -0.00023001
Au       9.16130595       9.26236672      11.01405816       0.00007411       0.00057527       0.00043851
Au      10.51261364      10.54286994       8.95818366      -0.00016641       0.00006806      -0.00075080
Au       9.99872368       9.80582575       6.48753576       0.00030813       0.00004956      -0.00012623
Au       8.67828377       8.54477492       8.37890651      -0.00042338      -0.00019285       0.00021601
Au      10.91333056      11.16620131      11.48043401       0.00002968      -0.00031895       0.00045254
7
Lattice="17.238596 0.0 0.0 0.0 17.238596 0.0 0.0 0.0 17.238596" Properties=species:S:1:pos:R:3:forces:R:3 config_type=qcd dft_energy=-14.58057662 gap_energy=-14.782564539821573 relaxed_gap_energy=-14.810836724354454 energy=-14.810836724354454 free_energy=-14.810836724354454 pbc="T T T"
Au       5.73026503       6.47591555       8.61929800       0.00037003      -0.00013710       0.00000000
Au       8.35976322       6.59288995       8.61929800       0.00006868      -0.00014412       0.00000000
Au      10.97265948       6.67518691       8.61929800      -0.00048703       0.00032409       0.00000000
Au       6.82906122       8.86124459       8.61929800      -0.00038147       0.00018176       0.00000000
Au       9.70211464       9.01663861       8.61929800      -0.00015871      -0.00079590       0.00000000
Au       8.06780570      11.18850131       8.61929800       0.00042222      -0.00009388       0.00000000
Au      10.67341671      11.52470909       8.61929800       0.00016628       0.00066516       0.00000000
8
Lattice="22.244364 0.0 0.0 0.0 22.244364 0.0 0.0 0.0 22.244364" Properties=species:S:1:pos:R:3:forces:R:3 config_type=qcd dft_energy=-17.58942814 gap_energy=-17.14426910128224 relaxed_gap_energy=-17.345814476561912 energy=-17.345814476561912 free_energy=-17.345814476561912 pbc="T T T"
Au      12.15741811      12.17516282      11.09875201      -0.00026941       0.00000807      -0.00007092
Au      12.76461010       9.50632944      11.07381682       0.00033816       0.00050700      -0.00018624
Au      10.08696019      10.06916233      11.14640011       0.00002113       0.00021046      -0.00011745
Au       9.47980893      12.73799859      11.17431989       0.00070662       0.00020109      -0.00039988
Au       7.57063643      10.95110813      11.21430670      -0.00000276      -0.00017545       0.00027254
Au      11.01034717       7.56705771      11.11197045      -0.00004681       0.00017692       0.00011749
Au      14.67363943      11.29335145      11.02638595      -0.00047198      -0.00040541       0.00017713
Au      11.23403562      14.67728556      11.13150409      -0.00027495      -0.00052267       0.00020732
8
Lattice="18.618201629 0.0 0.0 0.0 18.618201629 0.0 0.0 0.0 18.618201629" Properties=species:S:1:pos:R:3:forces:R:3 config_type=qcd dft_energy=-17.54218462 gap_energy=-17.297487905933437 relaxed_gap_energy=-17.345815608132824 energy=-17.345815608132824 free_energy=-17.345815608132824 pbc="T T T"
Au      12.57752089       7.90604580       9.30910081       0.00019799      -0.00029801       0.00000000
Au       8.16999425       5.93958186       9.30910081      -0.00007108       0.00039263       0.00000000
Au      10.44821311      12.67862168       9.30910081       0.00006365      -0.00043858       0.00000000
Au       6.04067496      10.71215295       9.30910081      -0.00015057       0.00026956       0.00000000
Au       9.91082599       7.96042364       9.30910081      -0.00010356      -0.00033891       0.00000000
Au      11.41366305      10.24802254       9.30910081      -0.00013207       0.00080878       0.00000000
Au       8.70737388      10.65778289       9.30910081       0.00009837       0.00032825       0.00000000
Au       7.20454038       8.37017514       9.30910081       0.00009726      -0.00072373       0.00000000
9
Lattice="19.036864 0.0 0.0 0.0 19.036864 0.0 0.0 0.0 19.036864" Properties=species:S:1:pos:R:3:forces:R:3 config_type=qcd dft_energy=-19.67645377 gap_energy=-19.87375243258063 relaxed_gap_energy=-19.962338812742885 energy=-19.962338812742885 free_energy=-19.962338812742885 pbc="T T T"
Au       7.57837098       8.08416172       9.50426224      -0.00076048      -0.00015961       0.00000866
Au       6.45691353      10.49824536       9.45117997      -0.00050760       0.00052915      -0.00010947
Au       7.94597384      12.75021892       9.42123606       0.00040946       0.00082569       0.00005022
Au       9.13777048      10.30170894       9.88825741      -0.00024954      -0.00012373       0.00011830
Au      10.35571728       7.79711225       9.53269370       0.00047272      -0.00042527       0.00023997
Au      13.02654176       7.82762327       9.45754959       0.00054299       0.00076303      -0.00011972
Au      11.84466106      10.15982314       9.50307176      -0.00051312      -0.00045111      -0.00002742
Au      10.63718492      12.53242888       9.44991631       0.00006902      -0.00086112      -0.00009648
Au       8.68275414       5.71456553       9.45772096       0.00053654      -0.00009702      -0.00006407
10
Lattice="21.0850883362636 0.0 0.0 0.0 21.0850883362636 0.0 0.0 0.0 21.0850883362636" Properties=species:S:1:pos:R:3:forces:R:3 config_type=qcd dft_energy=-22.64525043 gap_energy=-22.453944616463453 relaxed_gap_energy=-22.60020381345121 energy=-22.60020381345121 free_energy=-22.60020381345121 pbc="T T T"
Au       8.43108031       9.97815770       9.99667080       0.00049126      -0.00012547      -0.00018252
Au       7.11900075       7.69477523       9.28086069      -0.00012841      -0.00040552      -0.00041506
Au       6.00452522      10.09317737       8.71825999       0.00035375       0.00073980       0.00039002
Au      10.01246218      12.24885230       9.83969152      -0.00040405      -0.00020745      -0.00017619
Au      13.83276430       9.60435598      10.45512080       0.00039430      -0.00040056      -0.00026921
Au      12.65069220      12.02296545      10.20161470      -0.00001844      -0.00033761       0.00033218
Au      12.30934348       7.37039310      10.43010963       0.00006830       0.00022846       0.00011396
Au       9.66378727       7.49677392      10.07292937      -0.00009023       0.00051311       0.00030524
Au       7.46081512      12.34731736       9.05107708      -0.00024984      -0.00066749      -0.00001924
Au      11.09883939       9.81128218      10.58794951      -0.00041665       0.00066274      -0.00007919
11
Lattice="20.83887 0.0 0.0 0.0 20.83887 0.0 0.0 0.0 20.83887" Properties=species:S:1:pos:R:3:forces:R:3 config_type=qcd dft_energy=-24.94303594 gap_energy=-25.009490158141908 relaxed_gap_energy=-25.12182400190505 energy=-25.12182400190505 free_energy=-25.12182400190505 pbc="T T T"
Au       7.86635714       8.41792820      10.51724243       0.00036837       0.00026086       0.00049943
Au       8.49995768      11.13604157      10.38138264      -0.00028036      -0.00012923       0.00022393
Au       9.38065674      13.68495569      10.18355920      -0.00011733      -0.00049358      -0.00053563
Au      11.19612537      11.73037865      10.65850311       0.00025492       0.00044418      -0.00003941
Au      10.49182452       9.14383614      10.18982596      -0.00041285      -0.00000330      -0.00008397
Au      13.17647133       9.78257201      10.48500711       0.00040468      -0.00005358      -0.00041154
Au      13.84255334      12.36065810      10.33909755      -0.00000077      -0.00069034       0.00038324
Au      11.99478503      14.32457695      10.19341432       0.00013564       0.00052889       0.00022950
Au       9.77449265       6.56157101      10.62191316       0.00021049      -0.00081053      -0.00031571
Au      12.40171104       7.23272269      10.60760964      -0.00023670       0.00073613       0.00013780
Au       5.98885014      10.23854399      10.43622989      -0.00032608       0.00021050      -0.00008764
11
Lattice="18.69879673177583 0.0 0.0 0.0 18.69879673177583 0.0 0.0 0.0 18.69879673177583" Properties=species:S:1:pos:R:3:forces:R:3 config_type=qcd dft_energy=-24.90736678 gap_energy=-24.556652275996257 relaxed_gap_energy=-24.80241738326982 energy=-24.80241738326982 free_energy=-24.80241738326982 pbc="T T T"
Au      11.71205283       7.06528025       7.81001459      -0.00020654       0.00008886       0.00042883
Au      10.37590269       9.32101739       8.28321772      -0.00025474      -0.00001085      -0.00033618
Au      10.72011677       7.40382055      10.21563721      -0.00009098      -0.00051427       0.00019228
Au       9.42649469       7.72884007      12.52810994       0.00023422       0.00051565      -0.00068054
Au      10.05142526      11.72425552       6.93701957       0.00023669       0.00042837      -0.00042915
Au      10.82072123       9.87262540      11.55380989      -0.00017456      -0.00010523       0.00030855
Au      10.27352771      11.78045255       9.66388787      -0.00026920       0.00012946      -0.00005946
Au       8.36376273       9.12751350      10.38148840       0.00058172       0.00011203      -0.00032193
Au       7.93544001      10.93021729       8.35748508       0.00040298      -0.00054009       0.00056531
Au       5.91215162       9.86489438       9.64448208      -0.00048434      -0.00003735       0.00016211
Au      11.67875319      12.36626581      11.83545580       0.00002475      -0.00006658       0.00017017
12
Lattice="19.933157445 0.0 0.0 0.0 19.933157445 0.0 0.0 0.0 19.933157445" Properties=species:S:1:pos:R:3:forces:R:3 config_type=qcd dft_energy=-27.99043258 gap_energy=-27.756034531194903 relaxed_gap_energy=-27.86446671949934 energy=-27.86446671949934 free_energy=-27.86446671949934 pbc="T T T"
Au      12.98442506       7.13319744       9.96657872      -0.00008274      -0.00016345       0.00000000
Au      10.54385392       5.86714175       9.96657872       0.00027628       0.00063281       0.00000000
Au      13.20076571       9.82037742       9.96657872       0.00032065       0.00003456       0.00000000
Au       8.38680526      10.03799536       9.96657872      -0.00007931       0.00010435       0.00000000
Au       6.12816202      11.51624168       9.96657872      -0.00009834      -0.00044152       0.00000000
Au       8.22281479       7.23833546       9.96657872       0.00003292       0.00042005       0.00000000
Au      10.69454917       8.56253151       9.96657872      -0.00001117       0.00013461       0.00000000
Au      13.22779815      12.51612812       9.96657872      -0.00019940       0.00010703       0.00000000
Au      10.91137633      13.99720415       9.96657872       0.00024532      -0.00065271       0.00000000
Au       8.47607162      12.84103624       9.96657872      -0.00002521      -0.00056701       0.00000000
Au      10.81828593      11.29922681       9.96657872      -0.00011954      -0.00010890       0.00000000
Au       6.00403669       8.76952872       9.96657872      -0.00025946       0.00050018       0.00000000
13
Lattice="22.666307 0.0 0.0 0.0 22.666307 0.0 0.0 0.0 22.666307" Properties=species:S:1:pos:R:3:forces:R:3 config_type=qcd dft_energy=-29.91427577 gap_energy=-30.259762832612598 relaxed_gap_energy=-30.382364530745917 energy=-30.382364530745917 free_energy=-30.382364530745917 pbc="T T T"
Au      11.61933854      10.86339024       8.80387542       0.00014559       0.00033592       0.00020155
Au      11.85561096       9.54597700      11.23766437      -0.00000716       0.00008369       0.00043387
Au      11.46556017      10.98804284      13.53638452      -0.00027430      -0.00083279       0.00026849
Au      11.42842002      13.49656260       8.72669719       0.00035123       0.00054756      -0.00008731
Au      11.83354120      12.29442036      11.13767701      -0.00006021       0.00020251       0.00026742
Au      11.26424537      13.62169829      13.44725984       0.00038349       0.00048122       0.00001283
Au      10.92495678      16.21512424      13.42273741       0.00024244      -0.00041731      -0.00066564
Au      11.20536653      15.03375389      11.04342245      -0.00044923      -0.00004500      -0.00037051
Au      11.10547189      16.08844113       8.59152357      -0.00015096      -0.00042882       0.00000446
Au      11.40648596       8.19961592       8.93447126      -0.00033330       0.00040491       0.00018772
Au      11.16195556       6.88003295      11.23590107       0.00005532      -0.00004057       0.00042580
Au      10.83453574       5.74888781      13.59075156       0.00009524      -0.00048880      -0.00056947
Au      11.22550677       8.35504822      13.62262986       0.00000185       0.00019749      -0.00010922
14
Lattice="18.461514 0.0 0.0 0.0 18.461514 0.0 0.0 0.0 18.461514" Properties=species:S:1:pos:R:3:forces:R:3 config_type=qcd dft_energy=-33.17621841 gap_energy=-33.01045895888691 relaxed_gap_energy=-33.1816991078183 energy=-33.1816991078183 free_energy=-33.1816991078183 pbc="T T T"
Au       9.01211949      11.44170865       8.34980654       0.00022837       0.00070640      -0.00023608
Au       7.74200018      10.13696021      12.60445897       0.00039764      -0.00076128      -0.00000262
Au      11.28570833      10.29800142       7.26321257       0.00009882      -0.00025317      -0.00010112
Au       6.64940636       7.84204633      11.64788247      -0.00021498       0.00028066      -0.00016016
Au       8.59228084       6.33564022       6.85738959      -0.00000689      -0.00025219      -0.00009247
Au       7.56460260       7.02292136       9.26431574      -0.00044127      -0.00009865       0.00040458
Au      10.47875572       8.11396332       5.97891126       0.00010363       0.00028783       0.00025398
Au      11.48908425       9.59670570       9.93284088      -0.00014492       0.00036298       0.00029241
Au      10.38596284       7.47477289       8.72694098       0.00018166       0.00012547       0.00035598
Au       8.20581880       9.09883600       7.33235923      -0.00022230       0.00000295      -0.00034049
Au       9.43149308       8.33133040      11.13563786       0.00010795      -0.00026336      -0.00008695
Au       7.30063003       9.91654819       9.77310642       0.00047923       0.00018776       0.00031809
Au       9.60193325      11.34711927      11.11812707      -0.00046620      -0.00027193      -0.00027482
Au      11.49080221      12.27404404       9.24560841      -0.00010072      -0.00005347      -0.00033032
15
Lattice="19.383807 0.0 0.0 0.0 19.383807 0.0 0.0 0.0 19.383807" Properties=species:S:1:pos:R:3:forces:R:3 config_type=qcd dft_energy=-35.55387219 gap_energy=-35.75999978916565 relaxed_gap_energy=-35.86653692864603 energy=-35.86653692864603 free_energy=-35.86653692864603 pbc="T T T"
Au       7.70475090       9.88263205       7.68714313      -0.00038412       0.00016225       0.00052540
Au       8.31800148       8.06818529       9.83459520      -0.00004395       0.00025090       0.00020011
Au      11.07992006       8.08323933       9.86446518       0.00016371      -0.00035518       0.00005046
Au      11.71972885       9.90444276       7.73059251       0.00056058       0.00012966       0.00009617
Au       6.00067232       9.66071758       9.75869503       0.00011555       0.00031979      -0.00048470
Au      13.38104123       9.70075439       9.83837414      -0.00062053       0.00028626      -0.00015280
Au       8.29722278      11.23570372      10.15649355       0.00051451      -0.00049823       0.00052549
Au      11.05938188      11.25059434      10.18633958      -0.00049045       0.00017284       0.00056036
Au       9.69893087      11.92985384       7.91948941      -0.00009197       0.00033933      -0.00060254
Au       9.65470765      10.87917186      12.53536635       0.00001693       0.00005587      -0.00069479
Au       9.72551093       7.85676342       7.50531682      -0.00006704      -0.00028399      -0.00056289
Au      12.02465243       9.45446009      12.17912056       0.00079718      -0.00001065       0.00030568
Au       7.30857489       9.42884917      12.12820354      -0.00040975       0.00001538       0.00004823
Au       9.73165883      10.08634726       5.81612756      -0.00000135      -0.00028841       0.00000057
Au       9.67379738       7.95683739      12.23822996      -0.00005930      -0.00029582       0.00018525
16
Lattice="21.70124550256401 0.0 0.0 0.0 21.70124550256401 0.0 0.0 0.0 21.70124550256401" Properties=species:S:1:pos:R:3:forces:R:3 config_type=qcd dft_energy=-38.37432526 gap_energy=-38.1907806801622 relaxed_gap_energy=-38.355004236479225 energy=-38.355004236479225 free_energy=-38.355004236479225 pbc="T T T"
Au      13.63839887      12.22883786      14.97425002       0.00060634       0.00040945      -0.00002997
Au      12.57522655      10.22040201      10.76233181      -0.00003441       0.00015786      -0.00026318
Au       9.91132311       9.62844704      10.36524704       0.00024673      -0.00068785       0.00041958
Au      13.33454689       9.96712841      13.52424519      -0.00065357      -0.00026019      -0.00033011
Au       8.56146407      12.14733014       9.90594971      -0.00060446      -0.00032195       0.00027523
Au       7.19262415      10.04251743      10.89109628      -0.00044599       0.00014028      -0.00053492
Au      10.88930330      12.74363880      11.25803037       0.00009594      -0.00035599      -0.00038736
Au      12.65939859       7.80877896      12.08546512       0.00031004      -0.00072544       0.00055581
Au       8.83586868      11.33719077      12.62889863       0.00075124       0.00009418       0.00020217
Au      10.43189848      13.59788339       8.65705569       0.00031696       0.00035695      -0.00026346
Au      13.14123985      12.81270922       9.65427917      -0.00051885      -0.00017888      -0.00012517
Au      13.47635185      12.53898659      12.28683342      -0.00018173      -0.00021996       0.00030817
Au      11.11725248      11.90668278      13.94769494       0.00015114       0.00024510      -0.00071553
Au      12.47281438      12.95223224       6.99555113      -0.00024647       0.00072471       0.00051276
Au      11.27219972      10.96168810       8.47349429       0.00063192       0.00019519       0.00038691
Au      10.63033454       9.33782842      13.04003601      -0.00042482       0.00042652      -0.00001092
17
Lattice="21.83202470390269 0.0 0.0 0.0 21.83202470390269 0.0 0.0 0.0 21.83202470390269" Properties=species:S:1:pos:R:3:forces:R:3 config_type=qcd dft_energy=-41.34182588 gap_energy=-41.07704997192328 relaxed_gap_energy=-41.202134025628 energy=-41.202134025628 free_energy=-41.202134025628 pbc="T T T"
Au       9.49426285      13.31606107      12.88525644      -0.00042459      -0.00011643       0.00042184
Au      10.91591491       7.72120748      10.64381721      -0.00000379      -0.00046543      -0.00026375
Au       8.60031048      10.91943764       8.05183403       0.00008238       0.00000057       0.00010187
Au       8.13337791      10.91377889      12.70806741      -0.00064937      -0.00000275      -0.00035950
Au      10.91470691      12.33350116       8.56656372       0.00007446      -0.00016695       0.00038453
Au      12.33966001       8.51147501      12.87748962       0.00047512       0.00008812       0.00043609
Au      10.91688358      10.91440199      12.52599216       0.00000431       0.00001485      -0.00008173
Au      10.91582182      14.11075053      10.65231721      -0.00000272       0.00044768      -0.00029426
Au      13.70059338      10.91386139      12.70504262       0.00065397      -0.00000079      -0.00036731
Au      12.33982765      13.31609733      12.88370926       0.00042180      -0.00009132       0.00044639
Au      13.22860752      10.91950647       8.04930063      -0.00022610       0.00000298       0.00027421
Au       9.49457930       8.51143326      12.87904311      -0.00048653       0.00010696       0.00040455
Au      10.91474810       9.50141188       8.56044556       0.00007089       0.00003261       0.00026734
Au      13.04065515      12.32675916      10.39648129      -0.00018004      -0.00055996      -0.00037562
Au      13.03864190       9.50794292      10.39288235      -0.00026650       0.00063892      -0.00040491
Au       8.79075665      12.32669875      10.39878205       0.00018798      -0.00052303      -0.00027758
Au       8.79286189       9.50788503      10.39518532       0.00026875       0.00059398      -0.00031214
18
Lattice="20.6311347171461 0.0 0.0 0.0 20.6311347171461 0.0 0.0 0.0 20.6311347171461" Properties=species:S:1:pos:R:3:forces:R:3 config_type=qcd dft_energy=-44.49651296 gap_energy=-43.8160136328722 relaxed_gap_energy=-43.92986218078525 energy=-43.92986218078525 free_energy=-43.92986218078525 pbc="T T T"
Au       8.60218233      12.23973035      10.98678965      -0.00029804       0.00005146      -0.00012865
Au      10.53736718      13.27832324      12.76456731       0.00020326       0.00041890      -0.00021467
Au       9.98414164      14.49252806      10.31636338      -0.00045381       0.00045565       0.00025973
Au      10.11487795       8.99728092      12.42072027      -0.00011501      -0.00023123       0.00015672
Au      14.17224834       9.68792343      10.74795995      -0.00024340      -0.00001675       0.00014113
Au      13.16687230      13.27408542      13.69104805       0.00052639       0.00050763       0.00049166
Au      12.47998751      14.83941773      11.52557011       0.00005614       0.00041908      -0.00018311
Au       9.61292352       9.86462780       9.73082325       0.00020905      -0.00012577      -0.00042134
Au      14.35729836      10.81539366      13.30535212       0.00033706      -0.00045055      -0.00009550
Au      12.18871501      10.83027303       9.19709585      -0.00016062      -0.00025087      -0.00006089
Au      11.62059256      10.95639607      13.79148498       0.00049613      -0.00018944      -0.00000388
Au      13.70362129      12.36559346      11.07068737       0.00036057       0.00005277      -0.00047005
Au       8.89817784      11.22644047      13.56397960      -0.00064603      -0.00018430       0.00046510
Au      12.35425190      13.58472789       9.02450103      -0.00013413       0.00001677       0.00018519
Au       7.59558752       9.76019382      11.62268542      -0.00053619      -0.00035842      -0.00024625
Au      11.80643015       8.32365621      10.32114868       0.00015963       0.00026746      -0.00022434
Au      12.75426492       8.55473081      12.94239236      -0.00011190      -0.00020608       0.00056606
Au       9.94101402      12.32211245       8.55286453       0.00035091      -0.00017631      -0.00021689
19
Lattice="17.86580803 0.0 0.0 0.0 17.86580803 0.0 0.0 0.0 17.86580803" Properties=species:S:1:pos:R:3:forces:R:3 config_type=qcd dft_energy=-47.15725571 gap_energy=-47.21423047835582 relaxed_gap_energy=-47.23793247235559 energy=-47.23793247235559 free_energy=-47.23793247235559 pbc="T T T"
Au       6.22943707      11.96314660       6.22943707       0.00019672       0.00046053       0.00019672
Au       6.08082057      10.02525369       8.14478198       0.00021819       0.00056669      -0.00048997
Au       6.08082057       8.14478198      10.02525369       0.00021819      -0.00048997       0.00056668
Au       6.22943708       6.22943708      11.96314660       0.00019672       0.00019672       0.00046053
Au       8.14478198      10.02525369       6.08082057      -0.00048990       0.00056662       0.00021819
Au       7.92243066       7.92243066       7.92243066       0.00008224       0.00008223       0.00008222
Au       8.14478198       6.08082057      10.02525369      -0.00048997       0.00021819       0.00056668
Au      10.02525369       8.14478198       6.08082057       0.00056661      -0.00048990       0.00021820
Au      10.02525369       6.08082057       8.14478198       0.00056668       0.00021819      -0.00048996
Au      11.96314660       6.22943708       6.22943708       0.00046054       0.00019670       0.00019671
Au       8.14572734      12.10670462       8.14572734      -0.00029252      -0.00021986      -0.00029252
Au       7.87882901      10.25098648      10.25098647       0.00022849      -0.00030352      -0.00030352
Au       8.14572734       8.14572734      12.10670462      -0.00029249      -0.00029249      -0.00021986
Au      10.25098647      10.25098647       7.87882901      -0.00030352      -0.00030353       0.00022848
Au      10.25098648       7.87882901      10.25098647      -0.00030352       0.00022849      -0.00030352
Au      12.10670462       8.14572734       8.14572734      -0.00021986      -0.00029248      -0.00029249
Au      10.04007475      12.01990165      10.04007475       0.00010265      -0.00054785       0.00010264
Au      10.04007475      10.04007475      12.01990165       0.00010262       0.00010262      -0.00054785
Au      12.01990165      10.04007475      10.04007475      -0.00054785       0.00010262       0.00010263
20
Lattice="18.152 0.0 0.0 0.0 18.152 0.0 0.0 0.0 18.152" Properties=species:S:1:pos:R:3:forces:R:3 config_type=qcd dft_energy=-50.60185644 gap_energy=-50.04607601190707 relaxed_gap_energy=-50.069529854276574 energy=-50.069529854276574 free_energy=-50.069529854276574 pbc="T T T"
Au       6.07403606       8.13796799       8.13796799       0.00014073      -0.00046159      -0.00046159
Au      10.24346894       7.90853106       7.90853106      -0.00013378       0.00013378       0.00013378
Au       6.21597459       6.21613143       6.21613143       0.00009171      -0.00007460      -0.00007460
Au       6.07400200      10.01412020      10.01412020       0.00002818       0.00040020       0.00040020
Au      10.01419820       6.07398308      10.01400467      -0.00023422       0.00020171       0.00023146
Au      10.01419820      10.01400467       6.07398308      -0.00023422       0.00023146       0.00020171
Au      10.24328155      10.24337751      10.24337751       0.00006762      -0.00032074      -0.00032074
Au       8.13799533       8.13780180       6.07398308      -0.00023146       0.00023422       0.00020170
Au       7.90862249       7.90871845      10.24337751       0.00032074      -0.00006762      -0.00032074
Au      12.07801692       8.13780180      10.01400467      -0.00020171       0.00023422       0.00023146
Au       8.13799533       6.07398308       8.13780180      -0.00023146       0.00020170       0.00023422
Au       7.90862249      10.24337751       7.90871845       0.00032074      -0.00032074      -0.00006762
Au      12.07801692      10.01400467       8.13780180      -0.00020170       0.00023146       0.00023422
Au      10.01403201       8.13796799      12.07796394       0.00046159      -0.00046159      -0.00014073
Au       8.13787980      10.01412020      12.07799800      -0.00040020       0.00040020      -0.00002818
Au      11.93586857       6.21613143      11.93602541       0.00007460      -0.00007460      -0.00009171