3
Lattice="16.40529493162877 0.0 0.0 0.0 16.40529493162877 0.0 0.0 0.0 16.40529493162877" Properties=species:S:1:pos:R:3:forces:R:3 config_type=qcd dft_energy=-11.14293509 gap_energy=-10.349092943494659 relaxed_gap_energy=-10.397699240816044 energy=-10.397699240816044 free_energy=-10.397699240816044 pbc="T T T"
B        8.96021513       8.39412728       7.78973953       0.00027846       0.00003716      -0.00013473
B        7.53239467       8.77844200       8.18574867      -0.00027049       0.00021908      -0.00000000
B        8.11533260       7.43537312       8.63245420      -0.00000797      -0.00025624       0.00013474
4
Lattice="16.06077885697948 0.0 0.0 0.0 16.06077885697948 0.0 0.0 0.0 16.06077885697948" Properties=species:S:1:pos:R:3:forces:R:3 config_type=qcd dft_energy=-17.20868937 gap_energy=-16.72830036241179 relaxed_gap_energy=-16.99467036901591 energy=-16.99467036901591 free_energy=-16.99467036901591 pbc="T T T"
B        8.13034873       8.14174099       6.70328889       0.00013771      -0.00017754       0.00002868
B        7.99432886       7.25333862       7.96248231      -0.00013557      -0.00006847      -0.00024156
B        7.93037488       7.91904388       9.35748609       0.00015205       0.00007110       0.00001105
B        8.06650524       8.80743423       8.09830042      -0.00015420       0.00017491       0.00020184
5
Lattice="18.21078104167811 0.0 0.0 0.0 18.21078104167811 0.0 0.0 0.0 18.21078104167811" Properties=species:S:1:pos:R:3:forces:R:3 config_type=qcd dft_energy=-23.08337802 gap_energy=-23.061818757072203 relaxed_gap_energy=-23.139589998768813 energy=-23.139589998768813 free_energy=-23.139589998768813 pbc="T T T"
B        8.80758040       9.83338035       8.23686689       0.00000730       0.00016047      -0.00058123
B        7.52172873       9.27057782       8.86553548      -0.00001888      -0.00008602       0.00040928
B       10.19543632       9.39798889       8.79021186       0.00016050       0.00000693       0.00033306
B        8.72708647       8.61804718       9.67069742      -0.00062596      -0.00001307      -0.00019614
B       10.27512069       8.40695836       9.96364095       0.00047703      -0.00006831       0.00003502
6
Lattice="18.36024209775639 0.0 0.0 0.0 18.36024209775639 0.0 0.0 0.0 18.36024209775639" Properties=species:S:1:pos:R:3:forces:R:3 config_type=qcd dft_energy=-28.60590802 gap_energy=-28.36669044366668 relaxed_gap_energy=-28.596833807301532 energy=-28.596833807301532 free_energy=-28.596833807301532 pbc="T T T"
B       10.20709746       9.94665777       8.69918425       0.00007679       0.00029006      -0.00009250
B        8.70771979      10.44612203       8.96188223      -0.00006570       0.00022545      -0.00007168
B        8.77506540       7.88201479       9.33628893      -0.00015901      -0.00031604       0.00012435
B       10.24870958       8.36194988       8.93058303       0.00028701      -0.00013322      -0.00001188
B        7.82267330       9.17009382       9.35564017      -0.00002681       0.00015419       0.00005080
B        9.31946074       9.27388799       9.79714769      -0.00011228      -0.00022044       0.00000092
6
Lattice="16.12921757093636 0.0 0.0 0.0 16.12921757093636 0.0 0.0 0.0 16.12921757093636" Properties=species:S:1:pos:R:3:forces:R:3 config_type=qcd dft_energy=-28.55646096 gap_energy=-29.141403824700188 relaxed_gap_energy=-29.18045520873225 energy=-29.18045520873225 free_energy=-29.18045520873225 pbc="T T T"
B        9.04916231       8.54131023       7.23259301       0.00043898       0.00024846      -0.00023037
B        7.78607955       7.60733816       7.26137601       0.00003667      -0.00028025      -0.00068422
B        6.49006000       6.78289856       7.74061561      -0.00062579      -0.00012373       0.00047584
B        9.64052968       9.34447625       8.38910202       0.00010064       0.00012757       0.00059868
B        8.34125157       8.52442256       8.86716603       0.00007221       0.00037786      -0.00034552
B        7.08056961       7.58720695       8.89680002      -0.00002270      -0.00034991       0.00018559
7
Lattice="17.73703357047536 0.0 0.0 0.0 17.73703357047536 0.0 0.0 0.0 17.73703357047536" Properties=species:S:1:pos:R:3:forces:R:3 config_type=qcd dft_energy=-35.46897422 gap_energy=-35.64825225144538 relaxed_gap_energy=-36.10071894005174 energy=-36.10071894005174 free_energy=-36.10071894005174 pbc="T T T"
B        9.01348571       8.27119529       7.40510576      -0.00006651       0.00029684       0.00041130
B        7.81837390       9.25288993       7.74212701       0.00012327       0.00005384       0.00021127
B        9.99405761       7.79480870       8.55276588      -0.00041398       0.00005795       0.00022717
B        9.28614609       9.42072012       8.74093471      -0.00011247      -0.00018153       0.00048350
B        7.60382135       9.75824782       9.22678202       0.00032982      -0.00050485      -0.00048754
B        9.77941314       8.30001872      10.03745534      -0.00000765       0.00024501      -0.00060026
B        8.58431969       9.28173691      10.37444679       0.00014752       0.00003275      -0.00024544
8
Lattice="18.36403459722561 0.0 0.0 0.0 18.36403459722561 0.0 0.0 0.0 18.36403459722561" Properties=species:S:1:pos:R:3:forces:R:3 config_type=qcd dft_energy=-42.37927362 gap_energy=-42.854865492571186 relaxed_gap_energy=-43.237698420404264 energy=-43.237698420404264 free_energy=-43.237698420404264 pbc="T T T"
B        9.46559738       9.57695820       7.44749919       0.00001331      -0.00084612       0.00038812
B        8.02865189       9.07648632       7.80246793      -0.00038228       0.00040575       0.00011673
B       10.69999313       9.74279214       8.39092097      -0.00014849       0.00058642       0.00017834
B        7.47099475       8.61896194       9.18846974       0.00054704       0.00011514      -0.00038921
B        9.08089448       9.52371229       9.25412507       0.00013127      -0.00031080       0.00008392
B       10.80214867       9.44993005       9.92228866      -0.00004341      -0.00002152      -0.00019579
B        8.21268908       8.54869524      10.56186935      -0.00025559       0.00013848       0.00000490
B        9.69516900       8.91860222      10.88849747       0.00013815      -0.00006735      -0.00018702
9
Lattice="15.473644 0.0 0.0 0.0 15.473644 0.0 0.0 0.0 15.473644" Properties=species:S:1:pos:R:3:forces:R:3 config_type=qcd dft_energy=-48.01212469 gap_energy=-47.84660152676295 relaxed_gap_energy=-48.01712942372322 energy=-48.01712942372322 free_energy=-48.01712942372322 pbc="T T T"
B        7.73682200       7.73682200       9.47072876       0.00000000       0.00000000      -0.00013412
B        7.73682200       9.09243970       8.81788887       0.00000000       0.00004869       0.00019882
B        7.73682200       6.38120430       8.81788887       0.00000000      -0.00004869       0.00019882
B        7.73682200       9.42725610       7.35099109       0.00000000      -0.00003465      -0.00001894
B        7.73682200       6.04638790       7.35099109       0.00000000       0.00003465      -0.00001894
B        7.73682200       8.48913561       6.17463125       0.00000000      -0.00009621      -0.00007025
B        7.73682200       6.98450839       6.17463125       0.00000000       0.00009621      -0.00007025
B        6.88434893       7.73682200       7.73682340      -0.00000220      -0.00000000      -0.00004257
B        8.58929507       7.73682200       7.73682340       0.00000220      -0.00000000      -0.00004257
10
Lattice="16.751118 0.0 0.0 0.0 16.751118 0.0 0.0 0.0 16.751118" Properties=species:S:1:pos:R:3:forces:R:3 config_type=qcd dft_energy=-54.91419736 gap_energy=-54.362361400336425 relaxed_gap_energy=-54.618295987157666 energy=-54.618295987157666 free_energy=-54.618295987157666 pbc="T T T"
B        8.42786523       9.97052986       9.75985114       0.00000457       0.00024592       0.00023755
B        8.37555900       8.37555900       9.96095395       0.00000000       0.00000000      -0.00000599
B        8.37555900       8.37555900       6.79016405       0.00000000       0.00000000       0.00000599
B        8.42786523       9.97052986       6.99126686       0.00000457       0.00024592      -0.00023755
B        8.42785816      10.72415460       8.37555900      -0.00001678       0.00028899      -0.00000000
B        8.73008941       9.17454993       8.37555900       0.00000882      -0.00016535      -0.00000000
B        8.02102859       7.57656807       8.37555900      -0.00000882       0.00016535      -0.00000000
B        8.32325277       6.78058814       6.99126686      -0.00000457      -0.00024592      -0.00023755
B        8.32325277       6.78058814       9.75985114      -0.00000457      -0.00024592       0.00023755
B        8.32325984       6.02696340       8.37555900       0.00001678      -0.00028899       0.00000000
11
Lattice="13.8500140278805 0.0 0.0 0.0 13.8500140278805 0.0 0.0 0.0 13.8500140278805" Properties=species:S:1:pos:R:3:forces:R:3 config_type=qcd dft_energy=-60.9274156 gap_energy=-61.00383045499384 relaxed_gap_energy=-61.282030224921435 energy=-61.282030224921435 free_energy=-61.282030224921435 pbc="T T T"
B        6.04839780       5.27701881       5.23969628      -0.00014775       0.00004474       0.00005273
B        5.05222508       6.44812375       5.46076799      -0.00004946       0.00033150      -0.00027018
B        7.45266760       4.99236236       5.84608883       0.00000437       0.00003676       0.00004436
B        6.64745219       6.58041723       6.23046976       0.00008922      -0.00066561       0.00014794
B        5.12572225       7.72734975       6.35109949      -0.00012092      -0.00000521       0.00018922
B        8.39765355       5.82477946       6.80261642       0.00015924       0.00010435       0.00006244
B        5.86042069       8.58327614       7.49730131       0.00014834       0.00020708      -0.00024936
B        7.38300284       7.43720147       7.37870087      -0.00022025       0.00038329      -0.00036619
B        8.87472927       6.64901385       8.06511678      -0.00003606      -0.00006971       0.00034973
B        7.01967906       8.74018914       8.52976790      -0.00028846      -0.00078539       0.00030056
B        8.31312680       7.91534517       8.77345152       0.00046173       0.00041819      -0.00026124
12
Lattice="19.20287506969725 0.0 0.0 0.0 19.20287506969725 0.0 0.0 0.0 19.20287506969725" Properties=species:S:1:pos:R:3:forces:R:3 config_type=qcd dft_energy=-67.67790212 gap_energy=-67.19211817270453 relaxed_gap_energy=-67.80587046283081 energy=-67.80587046283081 free_energy=-67.80587046283081 pbc="T T T"
B        9.20651026      10.63469497       7.47601564      -0.00019902       0.00020337       0.00051936
B       10.52236680       9.76699667       7.72442274       0.00029138       0.00029802      -0.00031085
B       11.34993203       8.55153237       8.34399259      -0.00024722      -0.00001370       0.00036739
B        8.04820150      11.02361650       8.45857600      -0.00012309      -0.00068265      -0.00001228
B        9.58252590      10.60710372       9.18126174       0.00003168      -0.00060312      -0.00006990
B       10.68882841       9.53195229       9.62919124       0.00003097       0.00025164      -0.00001793
B       11.27161653       7.89115124       9.76389676       0.00005121       0.00051910       0.00000811
B        7.83965972      10.66739659       9.99991323       0.00024530       0.00004969       0.00011342
B        9.50206853       9.93034610      10.63591440       0.00022034       0.00000076      -0.00057586
B       10.34092358       8.23753938      11.01286411      -0.00036528      -0.00035191       0.00018040
B        7.89223741       9.71190212      11.27678087       0.00068701       0.00043111       0.00029221
B        8.97237975       8.66301846      11.71442110      -0.00062327      -0.00010231      -0.00049407
13
Lattice="19.22188382800511 0.0 0.0 0.0 19.22188382800511 0.0 0.0 0.0 19.22188382800511" Properties=species:S:1:pos:R:3:forces:R:3 config_type=qcd dft_energy=-73.03348977 gap_energy=-73.21904892724162 relaxed_gap_energy=-73.76589063732719 energy=-73.76589063732719 free_energy=-73.76589063732719 pbc="T T T"
B        9.59992795      10.71073411       7.19101665       0.00038284       0.00054185      -0.00026302
B       10.51638367       9.45409507       7.18430542      -0.00052631      -0.00004316       0.00022976
B        8.68105120      11.37067874       8.25684376       0.00074634      -0.00011824       0.00015188
B       10.93026871       8.38794013       8.27932820      -0.00055716      -0.00005938      -0.00002129
B        9.50420521       9.71246031       8.66285837      -0.00022990      -0.00028557       0.00015877
B       11.46721600       7.78338888       9.63616063      -0.00002722       0.00028007       0.00013541
B       10.29245773       9.07024214       9.92166806      -0.00062650       0.00066656       0.00015160
B        8.07963921      11.46389350       9.73967366      -0.00021220      -0.00041909      -0.00003135
B       10.88014194       7.87271686      11.07844045       0.00028352      -0.00059644       0.00012953
B        8.87925758       9.80825997      10.19956343       0.00085555      -0.00019560      -0.00007280
B        9.57713361       8.59406294      11.60440894       0.00023598       0.00004780      -0.00004028
B        7.96900591      10.96148047      11.20636499      -0.00079850      -0.00011207      -0.00019716
B        8.56555615       9.75229175      11.98161231       0.00047358       0.00029327      -0.00033105
14
Lattice="19.11788231748505 0.0 0.0 0.0 19.11788231748505 0.0 0.0 0.0 19.11788231748505" Properties=species:S:1:pos:R:3:forces:R:3 config_type=qcd dft_energy=-79.50223371 gap_energy=-79.56990505914321 relaxed_gap_energy=-80.32055529279053 energy=-80.32055529279053 free_energy=-80.32055529279053 pbc="T T T"
B        8.02244866       9.27165782       7.43775221       0.00025382      -0.00004898       0.00045083
B        9.52691059       9.57305452       7.20192056       0.00036380       0.00021694      -0.00000617
B       10.54880133       9.83835560       8.36845540      -0.00011083       0.00015602       0.00033273
B        8.68061097      10.34834159       8.66097190       0.00038023      -0.00000284      -0.00040221
B        9.09720076       8.51897172       8.60696348       0.00023008      -0.00003035      -0.00021832
B        7.35805473       9.12729896       8.83331821      -0.00079162       0.00020814       0.00031627
B        9.72787035      11.11980265       9.66080717       0.00013123      -0.00036427      -0.00010221
B        9.79901130       8.07458203      10.02171419       0.00025452      -0.00037498      -0.00022151
B       10.99077368       9.64856952       9.93695846      -0.00053695      -0.00057613       0.00008045
B        8.16007844       9.20302878      10.18478858      -0.00018458       0.00020589       0.00002721
B       10.59204884      11.13462883      10.97551068       0.00005173       0.00052035      -0.00027115
B        9.46718542       9.71992213      11.03087007      -0.00037490      -0.00000483       0.00049357
B       10.75873367       8.40074572      11.22503250       0.00068684      -0.00021342      -0.00041424
B       11.09544746       9.84621636      11.68011280      -0.00035337       0.00030846      -0.00006524
15
Lattice="20.63878160951212 0.0 0.0 0.0 20.63878160951212 0.0 0.0 0.0 20.63878160951212" Properties=species:S:1:pos:R:3:forces:R:3 config_type=qcd dft_energy=-85.18213912 gap_energy=-85.28385173062874 relaxed_gap_energy=-86.05252639445702 energy=-86.05252639445702 free_energy=-86.05252639445702 pbc="T T T"
B       10.91167383      11.07062680       7.37828554      -0.00037166      -0.00003011       0.00048819
B        9.68080034      11.60513145       8.22667596      -0.00003541      -0.00002445       0.00014524
B       12.09152386      10.13045244       7.79176375       0.00010477       0.00037818      -0.00006314
B       11.21309416      10.90297444       9.09589919       0.00039159      -0.00018891       0.00018608
B        8.47549623      11.53671851       9.26071897       0.00002356      -0.00023872       0.00010819
B        9.91171023      10.97335440      10.08824301       0.00064088      -0.00045176       0.00018433
B       12.40752827       9.43240972       9.18221774      -0.00055417      -0.00016649      -0.00056487
B       11.06064927      10.05784695      10.49087571      -0.00017012      -0.00005485      -0.00042054
B       12.09909587       8.64892532      10.53041576       0.00069916       0.00031805       0.00033356
B        8.22226834      11.05155980      10.74149050       0.00020755       0.00014992       0.00016037
B        9.61196586       9.97301111      11.55055461       0.00011719      -0.00031424      -0.00004447
B       11.10387519       8.75522810      11.75121626      -0.00058748      -0.00006469      -0.00020089
B        8.30727018      11.00680481      12.32018933      -0.00013919       0.00025094      -0.00035513
B       10.42221558       9.32136034      13.06128996       0.00010715       0.00028674      -0.00015896
B        9.27169485      10.32445791      13.32102580      -0.00043382       0.00015040       0.00020206
16
Lattice="22.44879416724079 0.0 0.0 0.0 22.44879416724079 0.0 0.0 0.0 22.44879416724079" Properties=species:S:1:pos:R:3:forces:R:3 config_type=qcd dft_energy=-91.43434915 gap_energy=-91.11312774670382 relaxed_gap_energy=-91.34664513721232 energy=-91.34664513721232 free_energy=-91.34664513721232 pbc="T T T"
B        9.61279480      13.95337017       9.71935146      -0.00009760      -0.00022862       0.00009114
B       10.78436086      14.97627655       9.96611201       0.00024451      -0.00005788       0.00012971
B       11.11040487      13.42549481      10.06617540       0.00025563      -0.00031893       0.00026112
B        9.67161545      12.39234669      10.05462328      -0.00008751       0.00016843       0.00003964
B       12.16266868      14.54587161      10.59448328       0.00057389       0.00013021       0.00016533
B        9.82587237      10.89952136      10.74461914      -0.00013679      -0.00027898      -0.00009259
B       11.19422824      11.88984555      10.86187123      -0.00012279      -0.00010463      -0.00009181
B       12.54397827      13.05973123      11.04026052      -0.00020862       0.00026854      -0.00062290
B        9.90474296       9.38916144      11.40870624       0.00030314      -0.00039208      -0.00025970
B       11.25469040      10.55894729      11.58688919      -0.00005856       0.00001338      -0.00009052
B       12.62304051      11.54922454      11.70405020      -0.00048719       0.00027632       0.00043851
B       10.28604969       7.90297192      11.85430582      -0.00024598       0.00010885       0.00031185
B       12.77728135      10.05635663      12.39403643      -0.00019954       0.00015127       0.00014986
B       11.33834838       9.02331053      12.38259706       0.00035731       0.00021618       0.00008703
B       11.66433354       7.47253708      12.48270704      -0.00004583      -0.00025629       0.00009027
B       12.83594298       8.49538593      12.72956507      -0.00004408       0.00030422      -0.00060697
17
Lattice="20.68617116727863 0.0 0.0 0.0 20.68617116727863 0.0 0.0 0.0 20.68617116727863" Properties=species:S:1:pos:R:3:forces:R:3 config_type=qcd dft_energy=-97.52176983 gap_energy=-97.62741670330729 relaxed_gap_energy=-98.32141973914554 energy=-98.32141973914554 free_energy=-98.32141973914554 pbc="T T T"
B       11.79337138      10.97629648       7.68101276       0.00007168       0.00012730      -0.00019758
B       11.37851382      12.45293954       7.87305003      -0.00009683       0.00016325       0.00024854
B       11.62242946       9.74849429       8.66232595      -0.00018976      -0.00014260       0.00012140
B       10.52931136      13.14937867       8.96860311      -0.00007983      -0.00009234       0.00003723
B       10.55051686      11.26022474       8.91157468       0.00030500      -0.00026838      -0.00008326
B       11.93332546       8.67958573       9.80435192      -0.00005707       0.00010862       0.00004999
B        9.49194128      13.10275351      10.19151469       0.00014410       0.00004492      -0.00007161
B       10.83565991      10.16271404      10.25248176       0.00010294       0.00006538      -0.00018938
B        9.44591976      11.22870651      10.18964044      -0.00015032      -0.00029049       0.00013992
B       11.74295253       7.49155028      10.84371427       0.00002352      -0.00001395       0.00005607
B        8.49490690      12.36809506      11.11465885       0.00012283      -0.00002515      -0.00014119
B       11.06447634       8.99833797      11.39131351      -0.00027870       0.00055676      -0.00013878
B        9.88859382      10.06742943      11.51650320       0.00004714      -0.00019471       0.00013410
B        8.28107237      10.86573537      11.57251220      -0.00021450       0.00028376       0.00016060
B       10.71222608       7.37355851      12.00910830      -0.00011027      -0.00009647      -0.00010703
B        9.60489684       8.40617195      12.49584574       0.00006760      -0.00010067       0.00029602
B        8.46234078       9.50048285      12.35424347       0.00029246      -0.00012525      -0.00031505
18
Lattice="18.416276 0.0 0.0 0.0 18.416276 0.0 0.0 0.0 18.416276" Properties=species:S:1:pos:R:3:forces:R:3 config_type=qcd dft_energy=-104.27860852 gap_energy=-103.85136220418786 relaxed_gap_energy=-104.33675931950853 energy=-104.33675931950853 free_energy=-104.33675931950853 pbc="T T T"
B        8.38705772      11.68266241       9.24653438      -0.00015428      -0.00007044      -0.00022410
B        9.20813800      10.16973160       9.52606882       0.00000000      -0.00049775       0.00057157
B       10.04087486       8.72734836       9.52610845      -0.00018151       0.00016543      -0.00003149
B       10.94055094       7.25981332       9.24634173       0.00014683      -0.00020594       0.00043151
B        7.66769409      10.09750795       8.70566381       0.00014242      -0.00017291       0.00010413
B        8.37540114       8.72734836       9.52610845       0.00018151       0.00016543      -0.00003149
B        9.20813800       7.42934598       8.70564198       0.00000000       0.00051375      -0.00026957
B       10.02921828      11.68266241       9.24653438       0.00015428      -0.00007044      -0.00022410
B       10.74858191      10.09750795       8.70566381      -0.00014242      -0.00017291       0.00010413
B       11.76163989       8.68196999       9.24674801       0.00033738       0.00008060      -0.00060329
B        7.47572506       7.25981332       9.24634173      -0.00014683      -0.00020594       0.00043151
B        6.65463611       8.68196999       9.24674801      -0.00033737       0.00008060      -0.00060329
B       12.40565319      10.15054938       9.26201214       0.00069831      -0.00060252       0.00008032
B       11.62305432      11.50608505       9.26191617      -0.00029107       0.00080830       0.00011049
B        6.01062281      10.15054938       9.26201214      -0.00069831      -0.00060252       0.00008032
B        6.79322168      11.50608505       9.26191617       0.00029107       0.00080830       0.00011049
B        8.42552982       5.96776675       9.26206190      -0.00087555      -0.00001053      -0.00001857
B        9.99074618       5.96776675       9.26206190       0.00087555      -0.00001053      -0.00001858
19
Lattice="21.62582863497792 0.0 0.0 0.0 21.62582863497792 0.0 0.0 0.0 21.62582863497792" Properties=species:S:1:pos:R:3:forces:R:3 config_type=qcd dft_energy=-109.96744152 gap_energy=-109.4353157342556 relaxed_gap_energy=-110.18524196344504 energy=-110.18524196344504 free_energy=-110.18524196344504 pbc="T T T"
B       11.10788216      11.42440670       7.42821706      -0.00011196      -0.00007952      -0.00033058
B       12.14456753      10.31457878       7.75513407       0.00003965       0.00011608      -0.00011382
B        9.96133870      11.97540220       8.39312938      -0.00060899      -0.00011292      -0.00003899
B       10.72209108      10.35039253       8.77929820      -0.00024305      -0.00022319       0.00055978
B       12.28092376       9.48908268       9.11443974      -0.00032310       0.00045104      -0.00004989
B        9.26919875      12.81040424       9.56396364       0.00072805       0.00022501      -0.00040138
B        9.99915622      11.15355606      10.08943144       0.00030513      -0.00044455       0.00000665
B       11.13559308      10.07267300      10.44990336      -0.00039619      -0.00047323      -0.00031894
B       12.54843425       8.95887986      10.58868557       0.00054068      -0.00003468      -0.00012651
B        9.12121801      13.82289704      10.78953157      -0.00018322       0.00024339       0.00012507
B        9.25424611      12.12512915      11.26672513       0.00013677       0.00037798      -0.00057905
B       10.44815746      10.90348249      11.61461918       0.00027038       0.00085726       0.00017245
B       12.39588528       8.01619205      11.84485072       0.00039608       0.00023073       0.00038500
B       11.68635022       9.69103272      12.12871429      -0.00007661       0.00000124      -0.00003351
B        9.47605342      13.54183156      12.27558466       0.00016538      -0.00045827       0.00007140
B       10.05381206      12.18756965      12.89181990       0.00007366      -0.00001292       0.00061217
B       11.72577659       8.19087374      13.22464905      -0.00005042       0.00003529       0.00009463
B       10.91904038      10.93793456      13.35640970      -0.00036742      -0.00037826      -0.00005964
B       11.19564699       9.47905300      13.89026536      -0.00029482      -0.00032048       0.00002515
20
Lattice="18.21030241 0.0 0.0 0.0 18.21030241 0.0 0.0 0.0 18.21030241" Properties=species:S:1:pos:R:3:forces:R:3 config_type=qcd dft_energy=-116.80351467 gap_energy=-116.45673077825467 relaxed_gap_energy=-116.51856740729107 energy=-116.51856740729107 free_energy=-116.51856740729107 pbc="T T T"
B       11.71513663       9.08670791       8.31707792       0.00001085      -0.00048173      -0.00027118
B       11.22747487      10.62432593       8.31700926       0.00040078      -0.00044449       0.00010399
B        9.92920974      11.58166370       8.31701582       0.00031582      -0.00009354       0.00012686
B        8.31614257      11.59308643       8.31708107       0.00051614       0.00023191      -0.00031953
B        7.00447229      10.65417711       8.31703991       0.00021302       0.00028650       0.00011879
B        6.49516579       9.12359449       8.31707798      -0.00001090       0.00048194      -0.00027138
B        6.98282755       7.58597648       8.31700929      -0.00040099       0.00044473       0.00010412
B        8.28109268       6.62863870       8.31701586      -0.00031624       0.00009360       0.00012669
B        9.89415984       6.61721598       8.31708104      -0.00051643      -0.00023199      -0.00031924
B       11.20583013       7.55612529       8.31703988      -0.00021302      -0.00028656       0.00011877
B       11.59309544       9.89410101       9.89325773      -0.00012548       0.00027235      -0.00000201
B       10.65420688      11.20577992       9.89329113      -0.00036352       0.00033895      -0.00015950
B        9.12365502      11.71513292       9.89323111      -0.00067381      -0.00001822       0.00020492
B        7.58600357      11.22752133       9.89325957      -0.00018955      -0.00010681       0.00002492
B        6.62863979       9.92927346       9.89324849      -0.00025494      -0.00059375       0.00017270
B        6.61720694       8.31620141       9.89325779       0.00012591      -0.00027265      -0.00000215
B        7.55609550       7.00452248       9.89329117       0.00036414      -0.00033887      -0.00015957
B        9.08664739       6.49516949       9.89323112       0.00067387       0.00001849       0.00020496
B       10.62429884       6.98278108       9.89325954       0.00018938       0.00010687       0.00002499
B       11.58166261       8.28102898       9.89324844       0.00025496       0.00059326       0.00017285
21
Lattice="18.40002279017173 0.0 0.0 0.0 18.40002279017173 0.0 0.0 0.0 18.40002279017173" Properties=species:S:1:pos:R:3:forces:R:3 config_type=qcd dft_energy=-121.9908488 gap_energy=-121.98489853852197 relaxed_gap_energy=-122.75862883728814 energy=-122.75862883728814 free_energy=-122.75862883728814 pbc="T T T"
B        8.57148513       9.11789969       6.14196060      -0.00036476      -0.00051252       0.00016186
B       10.11396367       8.99502454       6.42894781      -0.00024736       0.00027775       0.00020767
B       11.32572273       9.42828146       7.46574657      -0.00005579      -0.00035339      -0.00015351
B        7.42759768       8.81742377       7.20958374      -0.00019975       0.00059898       0.00039173
B        8.95192068       7.87150795       7.30059683       0.00024960       0.00023091      -0.00030666
B       10.62274084       7.87577919       7.65850766      -0.00038703      -0.00021698       0.00046319
B       11.76050457      10.19853541       8.82987138       0.00015146       0.00004328      -0.00007201
B        6.58905185       9.20738604       8.54252814       0.00036040       0.00032330      -0.00051318
B        7.90820546       7.99415313       8.74006251      -0.00022180      -0.00004820      -0.00014750
B       11.20158987       8.50272859       8.98701703       0.00015308      -0.00020443      -0.00025368
B        9.63274202       7.61694941       8.91735162       0.00067537       0.00044651       0.00010956
B       11.42264701      11.17564682      10.02041037      -0.00011274       0.00010958      -0.00009167
B        6.28959683      10.17905210       9.76922349      -0.00019021      -0.00063094      -0.00015931
B       11.15061926       9.51091619      10.33621599      -0.00005751      -0.00042819       0.00007147