3
Lattice="23.61898780233801 0.0 0.0 0.0 23.61898780233801 0.0 0.0 0.0 23.61898780233801" Properties=species:S:1:pos:R:3:forces:R:3 config_type=qcd dft_energy=-1.46464109 gap_energy=-1.3449760256654606 relaxed_gap_energy=-1.3527473741429759 energy=-1.3527473741429759 free_energy=-1.3527473741429759 pbc="T T T"
Ba      10.14469848      11.05108038      13.25574731       0.00047593       0.00041402      -0.00049599
Ba      13.56507943      10.39754964      11.21006953       0.00015069      -0.00069436       0.00018844
Ba      11.71870379      13.97985168      10.96266485      -0.00062662       0.00028033       0.00030755
4
Lattice="24.16487706627427 0.0 0.0 0.0 24.16487706627427 0.0 0.0 0.0 24.16487706627427" Properties=species:S:1:pos:R:3:forces:R:3 config_type=qcd dft_energy=-2.77329299 gap_energy=-2.7097360214012385 relaxed_gap_energy=-2.745602204993319 energy=-2.745602204993319 free_energy=-2.745602204993319 pbc="T T T"
Ba      12.51924340      11.25491359       9.75185539       0.00029375      -0.00010421       0.00022260
Ba      10.34248577      10.63572295      13.17188428      -0.00006878       0.00030568      -0.00007085
Ba      14.20713185      11.98541281      13.41787785       0.00008919      -0.00016472      -0.00032448
Ba      11.26089311      14.45370479      11.98813662      -0.00031416      -0.00003675       0.00017273
5
Lattice="27.33939750102586 0.0 0.0 0.0 27.33939750102586 0.0 0.0 0.0 27.33939750102586" Properties=species:S:1:pos:R:3:forces:R:3 config_type=qcd dft_energy=-4.14926356 gap_energy=-3.9575219106392625 relaxed_gap_energy=-4.014804923069414 energy=-4.014804923069414 free_energy=-4.014804923069414 pbc="T T T"
Ba      16.09644376      13.66970293      13.66981133       0.00015890      -0.00001127      -0.00014057
Ba      13.66901507      17.04385715      13.66972615       0.00040227       0.00058320      -0.00007814
Ba      13.66903333      10.29549406      13.66972492       0.00038352      -0.00049717      -0.00005117
Ba      12.45710666      13.66974161      15.77105654      -0.00063135      -0.00005903       0.00070186
Ba      12.45689493      13.66969800      11.56817480      -0.00031333      -0.00001574      -0.00043199
6
Lattice="26.66365435357293 0.0 0.0 0.0 26.66365435357293 0.0 0.0 0.0 26.66365435357293" Properties=species:S:1:pos:R:3:forces:R:3 config_type=qcd dft_energy=-5.43871712 gap_energy=-5.393349915044582 relaxed_gap_energy=-5.44018631478652 energy=-5.44018631478652 free_energy=-5.44018631478652 pbc="T T T"
Ba      15.45708863      15.45162017      13.33336993      -0.00046130       0.00056291      -0.00026960
Ba      11.21016502      15.45646925      13.33063056       0.00074828       0.00034071       0.00012868
Ba      11.20685188      11.21140553      13.33053044       0.00052377      -0.00000017      -0.00000827
Ba      15.45314498      11.20646619      13.33294690      -0.00077373       0.00031683      -0.00015844
Ba      13.33040772      13.33229880      16.33278219      -0.00021209      -0.00060091       0.00033409
Ba      13.33330481      13.33270312      10.33070303       0.00017507      -0.00061937      -0.00002646
7
Lattice="26.79255977702485 0.0 0.0 0.0 26.79255977702485 0.0 0.0 0.0 26.79255977702485" Properties=species:S:1:pos:R:3:forces:R:3 config_type=qcd dft_energy=-6.79506358 gap_energy=-6.703727052887514 relaxed_gap_energy=-6.800877373988891 energy=-6.800877373988891 free_energy=-6.800877373988891 pbc="T T T"
Ba      11.67513610      10.40947876      12.14301070       0.00035984       0.00024414      -0.00019501
Ba      12.66686724      12.97674384      15.39654174      -0.00010844       0.00002128      -0.00069405
Ba      14.12629397      13.81599907      11.39717216      -0.00067390      -0.00026301      -0.00046573
Ba      16.54836806      14.63225762      14.80646818       0.00033085       0.00012438       0.00003421
Ba      15.71368228      10.56427792      13.64575112      -0.00010336      -0.00011480       0.00065273
Ba      13.02765167      16.99260989      14.01566443      -0.00004001      -0.00002037       0.00032845
Ba      10.01595990      14.38259214      12.36935091       0.00023502       0.00000839       0.00033941
8
Lattice="26.91662902590973 0.0 0.0 0.0 26.91662902590973 0.0 0.0 0.0 26.91662902590973" Properties=species:S:1:pos:R:3:forces:R:3 config_type=qcd dft_energy=-8.14186187 gap_energy=-7.949934305117212 relaxed_gap_energy=-7.978607942290177 energy=-7.978607942290177 free_energy=-7.978607942290177 pbc="T T T"
Ba      16.24313005      14.36333456      16.93695569       0.00005490       0.00008401      -0.00019667
Ba      16.78788678      13.07101210      12.95433683      -0.00073742      -0.00015530       0.00012441
Ba      14.18189079      10.93087023      15.59789542      -0.00000473       0.00030474      -0.00040323
Ba      12.87066175      11.71284721      11.46716286       0.00039998      -0.00066537      -0.00021456
Ba      14.25334996      15.60634185      10.28496104       0.00047672       0.00022607       0.00051701
Ba      13.18088911      14.84108900      14.30318897       0.00033755       0.00014738       0.00003612
Ba       9.97981949      12.09844874      14.62387206       0.00000107      -0.00014204       0.00045819
Ba      10.16888817      15.04257241      11.49814324      -0.00052808       0.00020050      -0.00032127
9
Lattice="27.6766078390947 0.0 0.0 0.0 27.6766078390947 0.0 0.0 0.0 27.6766078390947" Properties=species:S:1:pos:R:3:forces:R:3 config_type=qcd dft_energy=-9.67626363 gap_energy=-9.503859922783379 relaxed_gap_energy=-9.525888897265888 energy=-9.525888897265888 free_energy=-9.525888897265888 pbc="T T T"
Ba      12.62263156      14.32612181      13.50649738      -0.00080944       0.00053796      -0.00018155
Ba      13.14214881      12.76725200       9.68678713       0.00052474      -0.00009105      -0.00016951
Ba      10.94468795      11.85885619      16.40260741       0.00032055      -0.00015726       0.00040961
Ba      15.15289172      12.74657315      16.50176113      -0.00022170      -0.00000414       0.00043132
Ba      13.61026720      10.22153042      13.27448834      -0.00038712      -0.00022320      -0.00015733
Ba      15.79811117      16.76002315      14.87475876      -0.00027467       0.00033147      -0.00004487
Ba      16.53749316      13.31889251      12.27028953       0.00005139       0.00013050      -0.00047359
Ba      14.46698665      16.72691418      10.65593077       0.00047850      -0.00022812      -0.00014739
Ba      12.26951705      15.81857184      17.37161483       0.00031775      -0.00029616       0.00033332
10
Lattice="27.38703495068795 0.0 0.0 0.0 27.38703495068795 0.0 0.0 0.0 27.38703495068795" Properties=species:S:1:pos:R:3:forces:R:3 config_type=qcd dft_energy=-11.56615113 gap_energy=-10.71275785473439 relaxed_gap_energy=-10.866104778994266 energy=-10.866104778994266 free_energy=-10.866104778994266 pbc="T T T"
Ba      15.71603276      15.92084071      10.99671587      -0.00027332       0.00000732      -0.00014547
Ba      11.37718589      11.17841627      11.54082151       0.00014487       0.00033526       0.00002631
Ba      15.81831428      11.46853002      11.24526750      -0.00026304       0.00027486      -0.00028810
Ba      10.89158542      16.04871361      11.87995159       0.00045055      -0.00058804      -0.00066381
Ba      14.50638154      17.47176658      14.87154332       0.00029238       0.00000919       0.00034001
Ba      13.42064375      13.92296801      13.51560657      -0.00033765      -0.00034889       0.00049504
Ba      14.02034605      10.36083519      15.12892875      -0.00006352      -0.00000866      -0.00026247
Ba      17.18335316      13.81849164      14.73208180       0.00021840       0.00000827      -0.00019879
Ba      10.16834130      12.72921952      15.41603782       0.00018847      -0.00000023       0.00017269
Ba      13.83299059      14.01539319      17.60822002      -0.00035714       0.00031092       0.00052459
11
Lattice="27.13245940484036 0.0 0.0 0.0 27.13245940484036 0.0 0.0 0.0 27.13245940484036" Properties=species:S:1:pos:R:3:forces:R:3 config_type=qcd dft_energy=-13.00211551 gap_energy=-12.498689321147356 relaxed_gap_energy=-12.546136185596968 energy=-12.546136185596968 free_energy=-12.546136185596968 pbc="T T T"
Ba      11.53551383      11.47224560      10.22225616       0.00001273      -0.00014579      -0.00007993
Ba      17.35219856      14.34033936      13.20485218       0.00004043      -0.00005329      -0.00016443
Ba      11.44825579      14.51686232      16.67742133      -0.00006943      -0.00010875      -0.00013642
Ba      10.11297471      14.90405873      12.40409027       0.00015463       0.00008826       0.00032038
Ba      15.15469309      11.40616291      16.37329902       0.00013798      -0.00017560       0.00033548
Ba      14.28525872      14.77792667       9.95043761       0.00012941       0.00015570      -0.00004684
Ba      15.59619850      15.65807619      16.91203127       0.00009148       0.00000246       0.00007482
Ba      13.56602166      13.56481845      13.56728471      -0.00030368       0.00047546      -0.00020792
Ba      11.17572966      10.63304119      14.43300225      -0.00019326      -0.00017139      -0.00000310
Ba      15.35209552      10.50933275      11.97441466       0.00009388      -0.00008884       0.00005135
Ba      13.64958668      17.44566255      13.50943728      -0.00009417       0.00002177      -0.00014338
11
Lattice="27.34693001140688 0.0 0.0 0.0 27.34693001140688 0.0 0.0 0.0 27.34693001140688" Properties=species:S:1:pos:R:3:forces:R:3 config_type=qcd dft_energy=-12.95774679 gap_energy=-12.464493814212673 relaxed_gap_energy=-12.546126649366059 energy=-12.546126649366059 free_energy=-12.546126649366059 pbc="T T T"
Ba      17.13843076      11.96447139      14.07230527       0.00037153      -0.00001331      -0.00012636
Ba      13.67689009      13.66745200      13.67334279      -0.00052308       0.00084197       0.00007674
Ba      13.45991109      10.02096504      12.36921911      -0.00015467      -0.00015111       0.00010160
Ba      13.18695549      17.32106898      12.44868133      -0.00037280       0.00002754      -0.00008109
Ba      10.65874819      13.81267391      11.23398868       0.00024307      -0.00004006       0.00024167
Ba      10.06190857      11.30475015      14.68604847      -0.00086523      -0.00033657       0.00021627
Ba      17.29225668      16.03195525      12.66038003       0.00045720       0.00049483      -0.00011418
Ba      14.97501833      13.53963187      10.01861465       0.00037222      -0.00030125      -0.00025250
Ba      10.91280312      15.37898575      15.79956326       0.00028360      -0.00021183      -0.00028259
Ba      15.33426751      15.76498563      16.48864472       0.00027985      -0.00020921       0.00029970
Ba      13.71092521      11.60117509      16.95732672      -0.00009169      -0.00010100      -0.00007926
12
Lattice="27.85977383209714 0.0 0.0 0.0 27.85977383209714 0.0 0.0 0.0 27.85977383209714" Properties=species:S:1:pos:R:3:forces:R:3 config_type=qcd dft_energy=-14.42847195 gap_energy=-14.281686081305423 relaxed_gap_energy=-14.29419907456439 energy=-14.29419907456439 free_energy=-14.29419907456439 pbc="T T T"
Ba      15.38046105      17.51335115      12.65882285      -0.00040665      -0.00046748       0.00000134
Ba      11.37059052      11.77403089      11.04851735       0.00025732      -0.00026048      -0.00035589
Ba      17.73180727      13.84998163      13.52147769      -0.00022701      -0.00000000       0.00023267
Ba      12.16023070      13.91162565      17.97598338       0.00011534       0.00019227       0.00035847
Ba      11.47453367      16.28203675      11.10942935      -0.00008060      -0.00023490       0.00011702
Ba      15.69883765      11.62618574      16.78027445      -0.00020778       0.00024215      -0.00060899
Ba      15.01995850      13.96023231      10.00986005       0.00003750       0.00033316       0.00011047
Ba      15.79771500      16.07022418      16.84306294      -0.00000458      -0.00017857      -0.00030537
Ba      13.54755495      13.93805126      13.97089274       0.00081368      -0.00019727       0.00000633
Ba      11.79849286      10.30745928      15.29138586      -0.00020632       0.00030549      -0.00025412
Ba      15.21749099      10.32250647      12.55626957      -0.00019935       0.00017554       0.00045488
Ba      11.96096985      17.60295769      15.39266674       0.00010846       0.00009010       0.00024319
13
Lattice="28.40568702937152 0.0 0.0 0.0 28.40568702937152 0.0 0.0 0.0 28.40568702937152" Properties=species:S:1:pos:R:3:forces:R:3 config_type=qcd dft_energy=-16.57895348 gap_energy=-16.29046073613853 relaxed_gap_energy=-16.297380294515516 energy=-16.297380294515516 free_energy=-16.297380294515516 pbc="T T T"
Ba      14.20284351      14.20284351      14.20284351      -0.00000000      -0.00000000      -0.00000000
Ba      14.20314832      14.20284353      18.43290343      -0.00009600       0.00000000      -0.00085001
Ba      15.37165293      10.60573574      16.09434526       0.00015217      -0.00022588       0.00010100
Ba      11.14315309      11.97957664      16.09371246      -0.00038364      -0.00002729       0.00039891
Ba      11.14315305      16.42611035      16.09371244      -0.00038364       0.00002729       0.00039891
Ba      15.37165287      17.79995133      16.09434523       0.00015217       0.00022588       0.00010100
Ba      17.98585474      14.20284356      16.09442140      -0.00041049       0.00000000       0.00003899
Ba      13.03403416      10.60573570      12.31134180      -0.00015217      -0.00022588      -0.00010100
Ba      10.41983228      14.20284347      12.31126563       0.00041049      -0.00000000      -0.00003899
Ba      13.03403410      17.79995129      12.31134177      -0.00015217       0.00022588      -0.00010100
Ba      17.26253394      16.42611039      12.31197457       0.00038364       0.00002729      -0.00039891
Ba      17.26253398      11.97957668      12.31197459       0.00038364      -0.00002729      -0.00039891
Ba      14.20253871      14.20284350       9.97278360       0.00009600      -0.00000000       0.00085001
14
Lattice="29.56005537795226 0.0 0.0 0.0 29.56005537795226 0.0 0.0 0.0 29.56005537795226" Properties=species:S:1:pos:R:3:forces:R:3 config_type=qcd dft_energy=-17.66935036 gap_energy=-17.348377101488772 relaxed_gap_energy=-17.357564257567688 energy=-17.357564257567688 free_energy=-17.357564257567688 pbc="T T T"
Ba      15.03888859      14.53531338      18.59276393      -0.00015597       0.00021035      -0.00035283
Ba      11.76079976      16.93034245      19.88154692      -0.00001171       0.00000142       0.00012545
Ba      13.84954907      10.95003803      16.20034710      -0.00006103      -0.00034618       0.00023187
Ba      11.28765651      14.61203559      16.34037212       0.00023663       0.00001350       0.00012007
Ba      13.88170984      18.13585343      16.39039241       0.00001675      -0.00031632      -0.00003255
Ba      18.14074340      16.77950290      16.28309383       0.00041215       0.00023021       0.00006259
Ba      18.07020656      12.33784711      16.21443949      -0.00040733       0.00019220       0.00045354
Ba      15.03164739      14.60088508      14.35510539       0.00015265      -0.00015859      -0.00036702
Ba      14.95559778      14.71573824      10.15735408       0.00067136      -0.00038077       0.00023901
Ba      11.89539966      12.46359432      12.50894950      -0.00004440       0.00014660       0.00020696
Ba      16.13361685      11.05152988      12.39867989       0.00029143       0.00067988      -0.00045747
Ba      11.93526004      16.90590387      12.55754481      -0.00039654       0.00017409      -0.00018211
Ba      16.16517434      18.26315324      12.59036899      -0.00015976       0.00016192       0.00048295
Ba      18.77413785      14.63865014      12.44942920      -0.00054424      -0.00060832      -0.00053045
15
Lattice="29.77050138060067 0.0 0.0 0.0 29.77050138060067 0.0 0.0 0.0 29.77050138060067" Properties=species:S:1:pos:R:3:forces:R:3 config_type=qcd dft_energy=-18.97666505 gap_energy=-18.799648188699287 relaxed_gap_energy=-18.82312877972037 energy=-18.82312877972037 free_energy=-18.82312877972037 pbc="T T T"
Ba      15.39495654      14.83322618      18.34593038      -0.00008766      -0.00005651       0.00023245
Ba      11.93983004      12.61933915      19.83058841       0.00002531      -0.00057603      -0.00019213
Ba      11.96801666      17.04807901      19.89294215       0.00000497       0.00059062      -0.00017594
Ba      14.15407673      11.30027025      16.03688124       0.00031233      -0.00042506      -0.00072225
Ba      11.61008256      14.88860818      16.11673647      -0.00010863       0.00007894       0.00031037
Ba      14.19954328      18.44530894      16.13753052       0.00023145       0.00043012      -0.00065705
Ba      18.47128287      17.06360311      15.97043328      -0.00025910      -0.00014400       0.00016568
Ba      18.44312379      12.63166584      15.90782899      -0.00026125       0.00021118       0.00027261
Ba      15.37703613      14.89390989      14.05062618      -0.00061169      -0.00000269       0.00046907
Ba      15.25674630      14.95357691       9.87526669       0.00008336      -0.00000831       0.00026233
Ba      12.21798140      12.72304867      12.23990923       0.00015571       0.00019552       0.00056482
Ba      16.43316305      11.30610422      12.16869168       0.00023168       0.00006627      -0.00059941
Ba      12.24609059      17.15488411      12.30234825       0.00015335      -0.00024096       0.00060966
Ba      16.47884753      18.51975863      12.27036642       0.00032922      -0.00015856      -0.00054364
Ba      19.08798289      14.89737725      12.13268046      -0.00019905       0.00003947       0.00000343
16
Lattice="29.81827859716008 0.0 0.0 0.0 29.81827859716008 0.0 0.0 0.0 29.81827859716008" Properties=species:S:1:pos:R:3:forces:R:3 config_type=qcd dft_energy=-20.46060495 gap_energy=-20.220403641618706 relaxed_gap_energy=-20.237984504689614 energy=-20.237984504689614 free_energy=-20.237984504689614 pbc="T T T"
Ba      15.27590340      14.59847720      17.95979053       0.00024377      -0.00018104       0.00063099
Ba      11.94665326      12.38448040      19.57567932      -0.00051106       0.00013049      -0.00023704
Ba      12.11772778      16.90096982      19.65294294      -0.00038140       0.00027416      -0.00051973
Ba      16.37988570      18.40678178      19.65539538      -0.00029846       0.00045056      -0.00010745
Ba      14.04408078      11.07436118      15.71720268       0.00046482       0.00003669      -0.00003239
Ba      11.47069631      14.67407341      15.82444865      -0.00001373       0.00014996       0.00065637
Ba      14.10006509      18.24567433      15.87203833      -0.00011563      -0.00000003       0.00060406
Ba      18.30301076      16.85954458      15.79439454       0.00006901      -0.00050183      -0.00010037
Ba      18.32196691      12.38697033      15.62463410      -0.00012294       0.00015690      -0.00087586
Ba      15.26839659      14.66038320      13.71800955       0.00061780      -0.00029561      -0.00030990
Ba      15.21474527      14.75568194       9.56396572      -0.00042788       0.00025056       0.00035017
Ba      12.14341601      12.52097375      11.89219593       0.00021915       0.00000109       0.00008868
Ba      16.35993239      11.09977862      11.85266372       0.00013597       0.00016004      -0.00013042
Ba      12.17773214      16.95907099      11.97236638       0.00022536      -0.00016330      -0.00002340
Ba      16.40581837      18.31111580      11.96958314       0.00006552      -0.00031800       0.00013021
Ba      19.01619802      14.70789143      11.90091786      -0.00017029      -0.00015063      -0.00012393
17
Lattice="29.46946607028833 0.0 0.0 0.0 29.46946607028833 0.0 0.0 0.0 29.46946607028833" Properties=species:S:1:pos:R:3:forces:R:3 config_type=qcd dft_energy=-22.01310176 gap_energy=-21.697820853526714 relaxed_gap_energy=-21.774983195469613 energy=-21.774983195469613 free_energy=-21.774983195469613 pbc="T T T"
Ba      14.73472289      19.47737336      17.36418942      -0.00000018      -0.00042848       0.00064509
Ba      11.21639758      16.88617283      16.76724594       0.00022167       0.00032797      -0.00043116
Ba      12.45561103      19.47464547      13.41800963      -0.00017030       0.00046525       0.00012254
Ba      14.73471798      14.73473203      18.52919663      -0.00000017       0.00000078      -0.00045599
Ba      14.73472941      16.49577347      14.73495660       0.00000317      -0.00027654       0.00058025
Ba      14.73474478      16.88481764      10.67199275       0.00000140       0.00078485       0.00008726
Ba      11.44900390      14.73473292      12.83892943      -0.00036445      -0.00000014      -0.00046878
Ba      14.73472262       9.99209379      17.36418775       0.00000023       0.00042776       0.00064632
Ba      12.45561328       9.99482443      13.41800839      -0.00017034      -0.00046756       0.00012275
Ba      11.21640035      12.58329733      16.76724273       0.00022113      -0.00032884      -0.00043035
Ba      18.25304956      16.88617015      16.76727260      -0.00022209       0.00032772      -0.00043197
Ba      17.01386363      19.47464033      13.41802470       0.00016988       0.00046649       0.00012368
Ba      14.73473437      12.97369221      14.73495544       0.00000304       0.00027827       0.00057990
Ba      18.02047786      14.73473312      12.83895495       0.00036116      -0.00000018      -0.00046714
Ba      18.25305331      12.58329426      16.76727544      -0.00022325      -0.00032733      -0.00043264
Ba      14.73475044      12.58464419      10.67199158       0.00000011      -0.00078333       0.00008763
Ba      17.01386862       9.99482403      13.41802759       0.00016899      -0.00046669       0.00012260
18
Lattice="29.84971484277335 0.0 0.0 0.0 29.84971484277335 0.0 0.0 0.0 29.84971484277335" Properties=species:S:1:pos:R:3:forces:R:3 config_type=qcd dft_energy=-23.50240315 gap_energy=-23.35043600631628 relaxed_gap_energy=-23.38014905165789 energy=-23.38014905165789 free_energy=-23.38014905165789 pbc="T T T"
Ba      14.92394286      14.88971792      17.43171870       0.00038181       0.00063851       0.00014337
Ba      16.09954926      11.16475705      19.06398381       0.00015679      -0.00005190       0.00004307
Ba      11.76571348      12.60455093      19.08299176      -0.00008361       0.00009388      -0.00001406
Ba      11.79548918      17.17132201      19.14554834       0.00018792      -0.00020474       0.00003889
Ba      16.14866850      18.55273569      19.16547920       0.00009550       0.00011902       0.00021974
Ba      18.80953867      14.84097739      19.11458644      -0.00035248      -0.00007750       0.00011840
Ba      13.73226315      11.33183993      15.24901993      -0.00023652      -0.00096096      -0.00012838
Ba      11.14271851      14.94486780      15.29780108      -0.00049778       0.00006918       0.00011055
Ba      13.77975254      18.52357207      15.34789938       0.00021523       0.00030628      -0.00006624
Ba      17.99941954      17.12169668      15.32926997      -0.00011510       0.00025759       0.00000161
Ba      17.96964289      12.67646921      15.26788880       0.00034992      -0.00017129       0.00011528
Ba      14.92520557      14.94894558      13.16744747       0.00035667       0.00065450       0.00023178
Ba      14.92640297      15.00650942       9.03543953      -0.00003999      -0.00004652      -0.00047069
Ba      11.84955200      12.77004821      11.35877483      -0.00055761      -0.00020213      -0.00027616
Ba      16.07098445      11.36730604      11.34037823       0.00028241      -0.00048309      -0.00027372
Ba      11.87873817      17.21869170      11.41983436      -0.00005875      -0.00007818       0.00002613
Ba      16.11922481      18.56489613      11.43959360       0.00007192       0.00018058       0.00001247
Ba      18.71062705      14.94852982      11.38977816      -0.00015633      -0.00004322       0.00016795
19
Lattice="32.37395270042643 0.0 0.0 0.0 32.37395270042643 0.0 0.0 0.0 32.37395270042643" Properties=species:S:1:pos:R:3:forces:R:3 config_type=qcd dft_energy=-25.6324733 gap_energy=-25.37238556320876 relaxed_gap_energy=-25.3995712450176 energy=-25.3995712450176 free_energy=-25.3995712450176 pbc="T T T"
Ba      16.18665060      16.15788755      18.32395351       0.00022581      -0.00004091      -0.00052207
Ba      16.18613745      16.10164702      22.45467552       0.00003567       0.00001739       0.00024850
Ba      17.33429204      12.52877885      20.05142167      -0.00004362       0.00006940      -0.00002454
Ba      13.11244944      13.92834662      20.06987493      -0.00002663      -0.00007114       0.00002621
Ba      13.13888396      18.37556498      20.13033139      -0.00004251       0.00002754       0.00006652
Ba      17.37695350      19.72460815      20.14913521       0.00007911       0.00006207       0.00014853
Ba      19.96994360      16.11119334      20.10055337      -0.00007234      -0.00001306      -0.00006892
Ba      14.99570238      12.59370006      16.13793743      -0.00017884      -0.00054050       0.00004757
Ba      12.40097755      16.20954193      16.18689914      -0.00053070       0.00004922      -0.00004204
Ba      15.03853266      19.79439689      16.23594859      -0.00018570       0.00041338      -0.00010048
Ba      19.26326297      18.39391103      16.21742851       0.00033092       0.00011165      -0.00010646
Ba      19.23687620      13.94337255      16.15682630       0.00022127      -0.00006651      -0.00000331
Ba      16.18705416      16.21614737      14.04981340       0.00037123      -0.00004761       0.00081321
Ba      16.18764720      16.27239201       9.91933785       0.00003344      -0.00006606      -0.00041149
Ba      13.11341992      14.03499876      12.24347081      -0.00018638      -0.00013514      -0.00013620
Ba      17.33497951      12.63540568      12.22477795       0.00008562      -0.00005170      -0.00005207
Ba      13.13978003      18.48205591      12.30382145      -0.00001125       0.00013901       0.00001042
Ba      17.37806883      19.83111216      12.32262027       0.00001081       0.00004544       0.00002574
Ba      19.97093866      16.21748982      12.27372335      -0.00011593       0.00009751       0.00008089
20
Lattice="26.33125076810863 0.0 0.0 0.0 26.33125076810863 0.0 0.0 0.0 26.33125076810863" Properties=species:S:1:pos:R:3:forces:R:3 config_type=qcd dft_energy=-26.91463286 gap_energy=-26.71682949938782 relaxed_gap_energy=-26.734268900993733 energy=-26.734268900993733 free_energy=-26.734268900993733 pbc="T T T"
Ba      12.69222022      11.02531391      10.45873388       0.00000448       0.00014418       0.00020461
Ba      11.25035993      14.85684743       8.68692188      -0.00003164      -0.00001122      -0.00021977
Ba       8.35569325      12.21093143      10.94906159       0.00004083      -0.00011130       0.00045799
Ba      10.30334358      17.48918722      15.42191535       0.00014658       0.00002424      -0.00022750
Ba      15.16618208      14.78886740      10.82159744      -0.00016537      -0.00010962       0.00019733
Ba      17.12561025      10.78153750      10.88059770       0.00015339       0.00003218      -0.00024515
Ba      11.38467381      14.36247502      12.89644053       0.00057626      -0.00039320      -0.00016608
Ba       8.18532620      16.59203598      11.57888429       0.00032677      -0.00018149       0.00060500
Ba      18.44783630      13.95977746      13.82086388      -0.00034102       0.00024801       0.00032926
Ba      12.30458201      18.21983014      11.52880920       0.00021069      -0.00027362       0.00032729
Ba      14.49719779       7.95173757      13.24349019      -0.00025293       0.00029265       0.00008505
Ba      17.99722042       9.78854541      15.24201457      -0.00036419       0.00040748       0.00029128
Ba      15.01856312      12.53920561       7.03884991      -0.00024142      -0.00007409       0.00061900
Ba       7.87765107      13.79830761      15.06580582       0.00004268       0.00009373      -0.00005200
Ba      14.73150769      12.04165146      14.14602211      -0.00032077       0.00028993      -0.00057155
Ba      14.70174083      16.33671268      14.94020295       0.00014799      -0.00000257      -0.00034392
Ba      10.73249062      10.29879341      14.35884131       0.00002873      -0.00017066      -0.00040415
Ba      16.49848321      13.19500664      17.73352971      -0.00008856       0.00004053       0.00000134
Ba      11.97007873      13.57094345      17.12081598       0.00017509      -0.00011276      -0.00065681
Ba      14.07174662       9.50480038      17.37910940      -0.00004758      -0.00013242      -0.00023123
21
Lattice="32.47449298934231 0.0 0.0 0.0 32.47449298934231 0.0 0.0 0.0 32.47449298934231" Properties=species:S:1:pos:R:3:forces:R:3 config_type=qcd dft_energy=-28.26661156 gap_energy=-28.11692675400579 relaxed_gap_energy=-28.138510326707205 energy=-28.138510326707205 free_energy=-28.138510326707205 pbc="T T T"
Ba      16.88404240      15.98413636      18.51612223      -0.00054691      -0.00035296      -0.00033421
Ba      16.80746546      16.01577070      22.62216436       0.00008127       0.00014669       0.00012266
Ba      18.03960584      12.40063315      20.27911867       0.00012505       0.00013110      -0.00011190
Ba      13.81326747      13.74538497      20.28398283       0.00002740       0.00001479       0.00032007
Ba      13.69631017      18.25932116      20.13506817      -0.00013620       0.00007266       0.00025983
Ba      18.03445376      19.58895377      20.31119645       0.00007480       0.00021021       0.00028623
Ba      20.63705277      15.98947933      20.29477329       0.00031954      -0.00020590      -0.00040343
Ba      15.68653170      12.39240048      16.34929061      -0.00001847       0.00007940      -0.00009884