3
Lattice="17.24649972602235 0.0 0.0 0.0 17.24649972602235 0.0 0.0 0.0 17.24649972602235" Properties=species:S:1:pos:R:3:forces:R:3 config_type=qcd dft_energy=-2.12931446 gap_energy=-1.8605616227504729 relaxed_gap_energy=-2.051355679607801 energy=-2.051355679607801 free_energy=-2.051355679607801 pbc="T T T"
Be       8.78423412       8.02078497       7.65742795      -0.00003746      -0.00030044       0.00027149
Be       8.60964086       9.77223921       8.58839912      -0.00002612       0.00037718       0.00012706
Be       8.47587461       8.07672541       9.62392252       0.00006358      -0.00007674      -0.00039855
4
Lattice="17.69270281094248 0.0 0.0 0.0 17.69270281094248 0.0 0.0 0.0 17.69270281094248" Properties=species:S:1:pos:R:3:forces:R:3 config_type=qcd dft_energy=-5.48420117 gap_energy=-4.264365583742734 relaxed_gap_energy=-4.297246527444418 energy=-4.297246527444418 free_energy=-4.297246527444418 pbc="T T T"
Be       7.19227692       7.76010235       8.40422638       0.00005157      -0.00014508      -0.00030061
Be       8.48357151       7.53491142       6.87731010      -0.00030400      -0.00007476       0.00011686
Be       6.51628736       7.74385423       6.50886891       0.00020752      -0.00011709       0.00018868
Be       7.20903340       6.04937929       7.34461254       0.00004491       0.00033693      -0.00000494
5
Lattice="17.98237903581619 0.0 0.0 0.0 17.98237903581619 0.0 0.0 0.0 17.98237903581619" Properties=species:S:1:pos:R:3:forces:R:3 config_type=qcd dft_energy=-7.52023087 gap_energy=-6.678152100122433 relaxed_gap_energy=-6.745125330220433 energy=-6.745125330220433 free_energy=-6.745125330220433 pbc="T T T"
Be       9.04059685       9.86163668       8.19754855      -0.00041027       0.00018143       0.00040839
Be       8.07307981       8.25146910       8.99871157       0.00020988       0.00069194       0.00027467
Be       9.76797283       8.01648346       7.97032395       0.00033512      -0.00012058       0.00050189
Be       9.85999025       8.86046847       9.77737011       0.00015139      -0.00060920      -0.00076952
Be       8.21430785       9.96588989      10.01199342      -0.00028612      -0.00014359      -0.00041542
6
Lattice="16.91748070506754 0.0 0.0 0.0 16.91748070506754 0.0 0.0 0.0 16.91748070506754" Properties=species:S:1:pos:R:3:forces:R:3 config_type=qcd dft_energy=-9.3447243 gap_energy=-9.367300300455168 relaxed_gap_energy=-9.543983657585853 energy=-9.543983657585853 free_energy=-9.543983657585853 pbc="T T T"
Be       7.92081352       9.32060050       8.34733849       0.00002363      -0.00061415      -0.00046712
Be       8.01277278       6.63274807       7.57447502       0.00022270       0.00063524       0.00017663
Be       6.58200937       7.98672086       7.76133570       0.00073671      -0.00026542       0.00006892
Be       9.35161819       7.96677795       8.16042052      -0.00078235      -0.00059467       0.00001970
Be       8.16127306       8.36562217       6.63104517      -0.00031765       0.00036049       0.00070903
Be       7.77238374       7.58760909       9.29069164       0.00011696       0.00047851      -0.00050715
6
Lattice="16.18494910406491 0.0 0.0 0.0 16.18494910406491 0.0 0.0 0.0 16.18494910406491" Properties=species:S:1:pos:R:3:forces:R:3 config_type=qcd dft_energy=-9.30589538 gap_energy=-9.058456468522293 relaxed_gap_energy=-9.403663462413517 energy=-9.403663462413517 free_energy=-9.403663462413517 pbc="T T T"
Be       8.45893752       8.20084371       6.99170368      -0.00027791      -0.00032141      -0.00046835
Be       6.61981588       8.55175798       7.49062617      -0.00017517       0.00003191      -0.00029253
Be       8.43211421       6.48440846       7.89041462      -0.00006408       0.00014567      -0.00017738
Be       8.11956379       9.54168339       8.43428664       0.00004865      -0.00052154       0.00042307
Be       9.43924869       8.03623723       8.72540389      -0.00008147       0.00020837       0.00051344
Be       7.48516723       7.73991654       9.02241232       0.00054997       0.00045700       0.00000177
7
Lattice="17.61641603901092 0.0 0.0 0.0 17.61641603901092 0.0 0.0 0.0 17.61641603901092" Properties=species:S:1:pos:R:3:forces:R:3 config_type=qcd dft_energy=-11.89699063 gap_energy=-12.101803270737841 relaxed_gap_energy=-12.230525853937147 energy=-12.230525853937147 free_energy=-12.230525853937147 pbc="T T T"
Be       7.24366062       8.14464188       7.94253267      -0.00047518      -0.00049184      -0.00039092
Be       7.86542092       6.29239268       8.47936493      -0.00003361       0.00019473      -0.00022350
Be       5.77210696       7.78702405       6.59634466       0.00026211      -0.00013297       0.00024639
Be       7.17433366       6.32455232       6.57491933       0.00064893       0.00074307       0.00010058
Be       7.58378741       8.20667658       5.94600580       0.00007781      -0.00035942       0.00050339
Be       5.94618327       6.60384017       8.16194215      -0.00011110       0.00031985       0.00013922
Be       8.87751823       7.28311397       7.10991005      -0.00036896      -0.00027341      -0.00037517
7
Lattice="18.11418862802973 0.0 0.0 0.0 18.11418862802973 0.0 0.0 0.0 18.11418862802973" Properties=species:S:1:pos:R:3:forces:R:3 config_type=qcd dft_energy=-11.87927117 gap_energy=-11.791788934193884 relaxed_gap_energy=-11.945274246834552 energy=-11.945274246834552 free_energy=-11.945274246834552 pbc="T T T"
Be       7.69011451       6.82423599       6.31344487      -0.00031487      -0.00071514       0.00035965
Be       6.40889122       7.84922281       5.11802785      -0.00003374       0.00001962      -0.00000773
Be       7.31411304       6.74546414       8.29594550      -0.00035222       0.00059789      -0.00010224
Be       7.05705499       5.10609896       7.16534903       0.00027187       0.00038706      -0.00004727
Be       5.46419681       6.04739514       7.94579990       0.00022444      -0.00043569      -0.00002768
Be       6.05268236       7.79158241       7.11574820       0.00056460      -0.00015265       0.00019107
Be       5.78863439       6.10616239       5.95354821      -0.00036006       0.00029891      -0.00036580
8
Lattice="17.82317782353972 0.0 0.0 0.0 17.82317782353972 0.0 0.0 0.0 17.82317782353972" Properties=species:S:1:pos:R:3:forces:R:3 config_type=qcd dft_energy=-14.9901833 gap_energy=-14.942191706973126 relaxed_gap_energy=-15.15808479232303 energy=-15.15808479232303 free_energy=-15.15808479232303 pbc="T T T"
Be       9.52147417       7.60255619       9.27826237      -0.00024299       0.00007365      -0.00008005
Be       9.44118328       8.93313524       7.51920170       0.00023968       0.00009694      -0.00032007
Be      10.76592160       9.27389171       9.09111599       0.00014017      -0.00016166      -0.00004036
Be       7.88883818       7.60971355       7.98344699      -0.00004692       0.00006930       0.00055799
Be       7.61092652       8.04131291       9.98500454       0.00012781      -0.00009481      -0.00040864
Be       9.06065064       9.52422023      10.26192449      -0.00034352       0.00004794       0.00012911
Be       9.38058562      10.72155400       8.58688456      -0.00012616       0.00009025      -0.00011368
Be       7.62313128       9.58632745       8.58687067       0.00025193      -0.00012161       0.00027569
9
Lattice="22.77890368231465 0.0 0.0 0.0 22.77890368231465 0.0 0.0 0.0 22.77890368231465" Properties=species:S:1:pos:R:3:forces:R:3 config_type=qcd dft_energy=-18.49924524 gap_energy=-18.366863219596045 relaxed_gap_energy=-18.51405008689878 energy=-18.51405008689878 free_energy=-18.51405008689878 pbc="T T T"
Be       7.74464720       6.32539739       7.64103767       0.00039598      -0.00011847      -0.00026983
Be       5.87454488       5.69317664       8.29763747       0.00024305       0.00033973      -0.00039532
Be       7.78080286       6.51658951       5.54511680       0.00039638      -0.00016265       0.00025485
Be       6.57290744       5.04776645       6.44728225       0.00031971      -0.00077592      -0.00003682
Be       6.17673204       7.67369912       7.73698421      -0.00022753       0.00038948      -0.00028573
Be       5.00502177       6.39606213       6.54321850      -0.00084134       0.00013393       0.00001687
Be       7.93566183       8.19957912       6.75832239      -0.00035526      -0.00050573      -0.00012490
Be       6.21290552       7.86487656       5.64103787      -0.00023485       0.00035599       0.00034760
Be       5.93623303       6.01937117       4.72139888       0.00030386       0.00034363       0.00049328
10
Lattice="20.51390172564698 0.0 0.0 0.0 20.51390172564698 0.0 0.0 0.0 20.51390172564698" Properties=species:S:1:pos:R:3:forces:R:3 config_type=qcd dft_energy=-22.15093038 gap_energy=-21.08057291852151 relaxed_gap_energy=-21.543830961342593 energy=-21.543830961342593 free_energy=-21.543830961342593 pbc="T T T"
Be       9.49176891       7.66449347       6.82155453      -0.00014446      -0.00035805      -0.00014295
Be       9.73100526       9.57808925       7.58786041      -0.00006748       0.00039961      -0.00054856
Be       9.46508081       7.95126331       8.84843459      -0.00003441      -0.00006030       0.00001135
Be       7.98450009       9.03333734       6.60797392       0.00079152       0.00032158       0.00031763
Be       8.58086567       6.21902514       8.04801430       0.00080689      -0.00013106       0.00004125
Be       7.53413068       6.98417625       6.46377054      -0.00046553      -0.00032167       0.00048243
Be       7.95795601       9.32021114       8.63479165      -0.00054399       0.00002564       0.00026348
Be       7.49637402       7.38983062       9.33023082      -0.00000806       0.00007115       0.00014326
Be       6.50911606       6.10118741       8.03754550      -0.00047410      -0.00021414      -0.00056600
Be       6.44945372       8.15492433       7.74599605       0.00013962       0.00026724      -0.00000188
11
Lattice="19.87121411552305 0.0 0.0 0.0 19.87121411552305 0.0 0.0 0.0 19.87121411552305" Properties=species:S:1:pos:R:3:forces:R:3 config_type=qcd dft_energy=-24.76198099 gap_energy=-24.195954657381677 relaxed_gap_energy=-24.219834299958023 energy=-24.219834299958023 free_energy=-24.219834299958023 pbc="T T T"
Be       8.95496730       6.79270728       8.55186286      -0.00025111       0.00046852       0.00049056
Be       8.34885289       6.01767796       6.76113264      -0.00050359       0.00017389      -0.00051422
Be       6.71171780       8.38334804       7.45708875       0.00038439      -0.00032831      -0.00003566
Be       6.31240725       6.44001303       6.67881692      -0.00029229       0.00010067       0.00069156
Be       8.57638683       8.83262103       8.38593034      -0.00000070       0.00035064      -0.00063883
Be       7.66416402       7.66615786       5.69069236       0.00017050       0.00067594       0.00009073
Be       5.50372678       6.92625729       8.49652589       0.00070669       0.00025893      -0.00030873
Be       8.29481417       9.45802142       6.45615610      -0.00030226      -0.00060176       0.00036107
Be       7.22467020       7.60647176       9.37411717      -0.00063824      -0.00022217      -0.00026391
Be       9.46243650       7.80037960       6.77833994       0.00017391      -0.00053180       0.00022111
Be       7.15629057       5.70852488       8.46423013       0.00055270      -0.00034454      -0.00009368
12
Lattice="18.55183278699042 0.0 0.0 0.0 18.55183278699042 0.0 0.0 0.0 18.55183278699042" Properties=species:S:1:pos:R:3:forces:R:3 config_type=qcd dft_energy=-27.29511629 gap_energy=-27.287236220496137 relaxed_gap_energy=-27.288423783924426 energy=-27.288423783924426 free_energy=-27.288423783924426 pbc="T T T"
Be       6.23185155       6.37488460       8.12360553       0.00035256      -0.00019559       0.00031969
Be       7.78067571       5.80992791       6.81867351      -0.00081510      -0.00010153       0.00012761
Be       6.34469507       7.21574245       6.19978813       0.00025327      -0.00058110       0.00016754
Be       8.37446560       7.51358362       5.73910218      -0.00009923       0.00078994       0.00009604
Be       9.15261463       8.90972334       7.10522991      -0.00047875       0.00043874       0.00006452
Be       7.60379663       9.47469915       8.41022759       0.00063523       0.00015597      -0.00011371
Be       7.00995869       7.77106519       9.48977819       0.00018002      -0.00079598       0.00000109
Be       9.03977259       8.06895538       9.02911778      -0.00035301       0.00033825      -0.00009730
Be       7.19265109       9.13150932       6.37702550       0.00070352      -0.00009600      -0.00047809
Be       5.86846873       8.42765353       7.85068094      -0.00042823       0.00028761      -0.00004757
Be       9.51591504       6.85697289       7.37827384       0.00061647      -0.00013244      -0.00017939
Be       8.19176306       6.15317104       8.85195132      -0.00056674      -0.00010785       0.00013957
12
Lattice="17.06978154591849 0.0 0.0 0.0 17.06978154591849 0.0 0.0 0.0 17.06978154591849" Properties=species:S:1:pos:R:3:forces:R:3 config_type=qcd dft_energy=-27.2765879 gap_energy=-26.77966237939796 relaxed_gap_energy=-27.09676315828258 energy=-27.09676315828258 free_energy=-27.09676315828258 pbc="T T T"
Be       8.72710892       7.83220603       6.65888306       0.00027035      -0.00061661       0.00017249
Be       7.20814532       9.26296200       6.98900547      -0.00008236       0.00006738       0.00007101
Be       9.25650199       9.74267892       7.24781404      -0.00016249      -0.00046795       0.00001217
Be       6.80415689       7.26727117       7.12021793      -0.00034180       0.00013801      -0.00027459
Be       9.93913704       8.02779156       8.42073910       0.00026135       0.00007471       0.00012773
Be       8.36556849       6.54131655       8.21814544       0.00027096      -0.00014597       0.00002385
Be       7.83048030      10.29910330       8.66763425      -0.00007853       0.00056853       0.00056734
Be       9.87466610      10.10137198       9.18928650      -0.00020072       0.00025779       0.00011246
Be       7.12578024       8.24993915       8.95707648      -0.00002058       0.00034823      -0.00038634
Be      10.25816432       8.53672482      10.44166870       0.00073658       0.00018811      -0.00031697
Be       8.34249342       9.28260043      10.39425953      -0.00025740      -0.00032954      -0.00005040
Be       8.68648626       7.27472338      10.11395876      -0.00039537      -0.00008269      -0.00005876
13
Lattice="18.97929139566318 0.0 0.0 0.0 18.97929139566318 0.0 0.0 0.0 18.97929139566318" Properties=species:S:1:pos:R:3:forces:R:3 config_type=qcd dft_energy=-30.18316503 gap_energy=-29.57223389264029 relaxed_gap_energy=-29.95648878889417 energy=-29.95648878889417 free_energy=-29.95648878889417 pbc="T T T"
Be       9.09843619       9.08506567      10.59018877       0.00000325      -0.00000516       0.00053503
Be      10.91252917      10.08268926      10.00402265      -0.00021270      -0.00040796      -0.00012792
Be       9.14143608      11.06836169       9.58268626      -0.00013309      -0.00018897      -0.00046335
Be       7.32860653      10.14988606       9.91106853      -0.00003302       0.00056851       0.00016432
Be       7.28462526       8.09840918       9.98490085       0.00020441       0.00039922      -0.00010612
Be       7.88319699       7.80941955       7.98909050      -0.00032240       0.00008650      -0.00023599
Be       6.36987571       9.10536109       8.44728811       0.00022581      -0.00061705      -0.00020278
Be       8.27764368       9.89168411       7.94407911      -0.00015704       0.00008270       0.00057582
Be      10.31489119      10.40837318       8.01359210       0.00032728      -0.00008889      -0.00023184
Be      11.82800472       9.10420744       8.44856079      -0.00024387       0.00062836      -0.00017955
Be      10.86858755       8.03291895       9.89241458       0.00003458      -0.00056483       0.00014618
Be       9.92047423       8.32729312       7.93006210       0.00016208      -0.00008521       0.00058059
Be       9.05591755       7.12065229       9.54631886       0.00014472       0.00019278      -0.00045438
14
Lattice="18.68252051042756 0.0 0.0 0.0 18.68252051042756 0.0 0.0 0.0 18.68252051042756" Properties=species:S:1:pos:R:3:forces:R:3 config_type=qcd dft_energy=-33.21920933 gap_energy=-32.79186018204567 relaxed_gap_energy=-33.17935913350083 energy=-33.17935913350083 free_energy=-33.17935913350083 pbc="T T T"
Be       9.52651731       6.51778763       7.82040812       0.00040077      -0.00017889       0.00011210
Be       9.41296955       7.94332467       6.30100656      -0.00022719      -0.00001157       0.00009548
Be       7.69635112       6.64624986       6.64445812      -0.00044375       0.00014436      -0.00008144
Be       7.78162167       5.67324786       8.59219803      -0.00014181      -0.00013707      -0.00034018
Be       9.66249115       8.56630381       8.30034570      -0.00009734       0.00031119      -0.00021840
Be       7.55354489       8.52491538       5.55259091       0.00008337      -0.00015626       0.00001932
Be       5.92186207       6.25410860       7.84418421      -0.00023491       0.00043418       0.00023276
Be       5.80729480       7.68042550       6.32418799       0.00068287      -0.00035444      -0.00004223
Be       6.63848325       7.10351928       9.63683024      -0.00005046      -0.00000934      -0.00023810
Be       8.72023390       7.25520176       9.62363254      -0.00003839       0.00009148       0.00012191
Be       7.55173935       8.86703060       8.74185775       0.00041340      -0.00033315       0.00053618
Be       5.49954337       8.26228807       8.32742446       0.00011032      -0.00010016       0.00013762
Be       8.52251903       9.72509750       6.99091974      -0.00001763       0.00004804       0.00007273
Be       6.44140325       9.57276831       7.00497750      -0.00043925       0.00025163      -0.00040775
14
Lattice="21.996648 0.0 0.0 0.0 21.996648 0.0 0.0 0.0 21.996648" Properties=species:S:1:pos:R:3:forces:R:3 config_type=qcd dft_energy=-33.2191633 gap_energy=-32.501984656732155 relaxed_gap_energy=-32.77409321243001 energy=-32.77409321243001 free_energy=-32.77409321243001 pbc="T T T"
Be      10.99832400      12.64932119      10.99832400      -0.00000000      -0.00005685       0.00000000
Be       9.34732681      10.99832400      10.99832400       0.00005685       0.00000000      -0.00000000
Be       9.96147569      12.03517231      12.74494825       0.00010215      -0.00010215      -0.00007859
Be       9.96147569       9.96147569      12.74494825       0.00010215       0.00010215      -0.00007859
Be       9.96147569      12.03517231       9.25169975       0.00010215      -0.00010215       0.00007859
Be      10.99832400       9.34732681      10.99832400      -0.00000000       0.00005685      -0.00000000
Be      12.64932119      10.99832400      10.99832400      -0.00005685       0.00000000       0.00000000
Be      12.03517231       9.96147569      12.74494825      -0.00010215       0.00010215      -0.00007859
Be      12.03517231       9.96147569       9.25169975      -0.00010215       0.00010215       0.00007859
Be       9.96147569       9.96147569       9.25169975       0.00010215       0.00010215       0.00007859
Be      12.03517231      12.03517231       9.25169975      -0.00010215      -0.00010215       0.00007859
Be      12.03517231      12.03517231      12.74494825      -0.00010215      -0.00010215      -0.00007859
Be      10.99832400      10.99832400      14.22410093       0.00000000       0.00000000       0.00001701
Be      10.99832400      10.99832400       7.77254707      -0.00000000      -0.00000000      -0.00001701
15
Lattice="18.80012031004724 0.0 0.0 0.0 18.80012031004724 0.0 0.0 0.0 18.80012031004724" Properties=species:S:1:pos:R:3:forces:R:3 config_type=qcd dft_energy=-36.01410927 gap_energy=-35.114572509690674 relaxed_gap_energy=-35.20504481867763 energy=-35.20504481867763 free_energy=-35.20504481867763 pbc="T T T"
Be       8.54678599       8.88348956       6.47929718       0.00004695       0.00012323       0.00027181
Be       7.70661377       8.45038056       8.33961076       0.00035327       0.00015332       0.00086060
Be      10.19190439       9.80403721       7.37413498      -0.00014698      -0.00015113       0.00058398
Be       9.67064530       7.81777226       7.87782522      -0.00025684       0.00010551      -0.00009513
Be       8.22800202      10.43661778       7.83608551       0.00006604      -0.00012384       0.00005151
Be       9.89748554      11.29463623       8.91981614       0.00021821       0.00051405      -0.00035727
Be      11.09355746      10.34976998      10.46058406      -0.00051495      -0.00025929      -0.00042382
Be       9.39982880       9.39994092       9.40008730       0.00040328       0.00017306      -0.00009699
Be      11.27336150       8.79672279       8.95940227       0.00076171       0.00004681       0.00002173
Be       7.52662564      10.00370566       9.84065184      -0.00010519      -0.00058425       0.00004891
Be       8.90284050       7.50523828       9.88039571      -0.00049211       0.00031049       0.00008401
Be       9.12962674      10.98241340      10.92226131      -0.00004418      -0.00026054       0.00017574
Be      10.57219393       8.36354423      10.96393815      -0.00021952       0.00009537       0.00019597
Be      10.25321106       9.91653519      12.32092417       0.00007631      -0.00011155      -0.00036849
Be       8.60821970       8.99609826      11.42588771      -0.00014602      -0.00003123      -0.00095256
15
Lattice="15.15603089032733 0.0 0.0 0.0 15.15603089032733 0.0 0.0 0.0 15.15603089032733" Properties=species:S:1:pos:R:3:forces:R:3 config_type=qcd dft_energy=-35.99250172 gap_energy=-35.19243794493278 relaxed_gap_energy=-35.304519785024766 energy=-35.304519785024766 free_energy=-35.304519785024766 pbc="T T T"
Be       6.78773061       9.89177922       9.01153807       0.00016726       0.00021351      -0.00039760
Be       7.89833450       8.37327533       9.72317236      -0.00025154       0.00027633      -0.00038633
Be       8.43871535       9.40386980       7.82849857      -0.00035058       0.00008465       0.00002807
Be       9.41672611       7.57211179       8.60179668       0.00000563      -0.00025798      -0.00003649
Be       5.94910748       8.00111554       8.72021131      -0.00043818      -0.00014912       0.00062588
Be       6.34015644       9.46815726       7.09688606       0.00004780       0.00002531      -0.00022095
Be       7.38532241       6.42728521       9.32947668       0.00028456      -0.00007575       0.00009938
Be       7.57795353       7.57807187       7.57792184       0.00077792      -0.00030561      -0.00019452
Be       9.20690820       7.15518811       6.43544389      -0.00052771      -0.00009881       0.00053630
Be       8.81560000       5.68794084       8.05957837       0.00004493       0.00001425      -0.00036250
Be       7.77024038       8.72885027       5.82631472       0.00013255      -0.00022205       0.00038638
Be       8.36873913       5.26415713       6.14483094      -0.00006910       0.00033411      -0.00007582
Be       5.73921192       7.58399652       6.55409070       0.00024263       0.00005087       0.00010147
Be       6.71761583       5.75205309       7.32757859      -0.00010062      -0.00007206      -0.00022044
Be       7.25786980       6.78237970       5.43289288       0.00003446       0.00018232       0.00011716
16
Lattice="20.21217446867523 0.0 0.0 0.0 20.21217446867523 0.0 0.0 0.0 20.21217446867523" Properties=species:S:1:pos:R:3:forces:R:3 config_type=qcd dft_energy=-39.02788279 gap_energy=-38.60195146180942 relaxed_gap_energy=-39.502398986816715 energy=-39.502398986816715 free_energy=-39.502398986816715 pbc="T T T"
Be       9.36393045       9.81952844       6.61177591       0.00011295      -0.00004694      -0.00006292
Be       6.79498828       6.60170015       9.60056733       0.00014011      -0.00018347       0.00021121
Be       7.37984843       9.95258627       7.21789582       0.00011785      -0.00020509       0.00026709
Be       8.70295497       7.45779448       9.83265132      -0.00021336       0.00017215      -0.00003001
Be       6.49426418       8.37458636       8.29353673       0.00086493      -0.00031074       0.00017971
Be       7.99591736       8.07019402       6.51000118      -0.00022605       0.00017993       0.00005100
Be      10.08882233       7.85390332       6.50506397      -0.00022659       0.00032797      -0.00012338
Be       8.92866441       6.11777465       6.73862268       0.00040170       0.00004323      -0.00030629
Be       9.89810359       8.92893308       8.44169953       0.00006530      -0.00007800      -0.00049976
Be       7.05802716       6.49291274       7.54134631      -0.00076750       0.00019461      -0.00019783
Be       8.42981078       5.58521259       8.75849171      -0.00003492       0.00024503       0.00086889
Be       6.90810428      10.30784953       9.20176607       0.00057870      -0.00004669       0.00033331
Be       6.84391988       8.55629156      10.36055157      -0.00071251       0.00004720      -0.00067448
Be       8.63287129       9.55306075      10.00388205      -0.00026997      -0.00027192      -0.00036944
Be      10.02059456       6.83297370       8.31459139       0.00019072       0.00028328       0.00011850
Be       8.82449285      10.82051278       8.37859209      -0.00002137      -0.00035054       0.00023440
17
Lattice="20.15056611417363 0.0 0.0 0.0 20.15056611417363 0.0 0.0 0.0 20.15056611417363" Properties=species:S:1:pos:R:3:forces:R:3 config_type=qcd dft_energy=-43.17975819 gap_energy=-42.33747385837189 relaxed_gap_energy=-42.77059398730882 energy=-42.77059398730882 free_energy=-42.77059398730882 pbc="T T T"
Be      11.89175395      10.55552870       8.74617769      -0.00010028      -0.00019775       0.00001652
Be      11.79415062       8.56671224       9.25513641      -0.00010116       0.00008342      -0.00021892
Be      12.56672865       9.88016689      10.64211539       0.00029541      -0.00005865      -0.00044227
Be      11.90733717      11.84598219      10.34830340       0.00044799       0.00042492       0.00018453
Be      10.14676754       9.35300860       8.08818394       0.00069153      -0.00029635      -0.00033769
Be      10.08170360      12.21255189      11.23059434      -0.00022206       0.00006354       0.00017949
Be       9.97619013       7.67046747       9.67593398       0.00001579      -0.00023694       0.00000668
Be      11.22038938      10.67442528      11.97965858      -0.00039056      -0.00033803       0.00011590
Be      10.22011686      11.88738509       9.04508521      -0.00043998      -0.00004202      -0.00028452
Be       9.97821306      10.03979395      10.05643051       0.00031961       0.00084303       0.00013074
Be       9.01707445      10.43838363      11.87072344       0.00020610      -0.00042526      -0.00004116
Be      10.96432774       8.63991125      11.30638668      -0.00042998      -0.00031488       0.00019790
Be       8.37515932      11.82440269      10.12519811      -0.00030428       0.00013664      -0.00020808
Be       8.75290243       8.42821849      11.15988682       0.00000898       0.00008764       0.00052839
Be       8.32914458       8.66709290       8.94282295      -0.00017738       0.00015421       0.00012477
Be       8.47254213      10.65622971       8.42235639       0.00009223       0.00001682       0.00000053
Be       7.58531040       9.93955101      10.38481809       0.00008805       0.00009964       0.00004717
18
Lattice="17.76104724457499 0.0 0.0 0.0 17.76104724457499 0.0 0.0 0.0 17.76104724457499" Properties=species:S:1:pos:R:3:forces:R:3 config_type=qcd dft_energy=-46.0121616 gap_energy=-45.84829229645322 relaxed_gap_energy=-46.034838209240675 energy=-46.034838209240675 free_energy=-46.034838209240675 pbc="T T T"
Be       9.59348159       6.88304128       9.34584016      -0.00025191       0.00023540      -0.00006101
Be       9.50144893       8.24268975      11.00909041       0.00018078      -0.00014485       0.00039432
Be      10.85643169       9.26945487       9.69253469      -0.00057478       0.00015406      -0.00020514
Be       7.48830088       9.37531454      10.54628741       0.00027966      -0.00012220      -0.00012133
Be       6.51816477       8.13001606       9.10301556       0.00027312      -0.00002048       0.00061412
Be      10.88038450      10.00294090       7.68885304       0.00031985       0.00011983      -0.00030643
Be       7.58178049       8.25092677       7.25823660       0.00027634       0.00002452       0.00060365
Be       8.11930431      11.15556705       9.54255051       0.00043277      -0.00039645       0.00059282
Be       9.54943716       8.85930066       6.58985474       0.00002564       0.00011889      -0.00075836
Be       9.24726553       6.91701752       7.24054007       0.00024235      -0.00013050      -0.00039207
Be       8.84472394      10.63738017       7.60491053       0.00013918      -0.00051988       0.00076665
Be       7.66906697       6.51810427       8.49994515      -0.00018313      -0.00007817       0.00017289
Be       6.93100638       9.99051588       8.34173546      -0.00044948       0.00030436      -0.00048963
Be       8.83654898       8.89610850       8.93311816       0.00040463       0.00044200      -0.00035190
Be       9.39618984      10.28725997      10.86762486      -0.00055937       0.00049458      -0.00044166
Be      10.88352958       7.95216076       7.97423466       0.00057530      -0.00026967      -0.00010068
Be       7.79506565       7.26181215      10.42807722      -0.00056814       0.00035135      -0.00015915
Be      10.15729399      11.21981409       9.18297599      -0.00056282      -0.00056278       0.00024290
19