3
Lattice="15.79584779440994 0.0 0.0 0.0 15.79584779440994 0.0 0.0 0.0 15.79584779440994" Properties=species:S:1:pos:R:3:forces:R:3 config_type=qcd dft_energy=-9.08354299 gap_energy=-9.012358503494044 relaxed_gap_energy=-9.10472463601957 energy=-9.10472463601957 free_energy=-9.10472463601957 pbc="T T T"
Bi       6.39508089       7.22678421       8.19936876       0.00047625       0.00069101      -0.00006434
Bi       9.19803135       6.90931799       7.53484080       0.00032708      -0.00072694      -0.00012252
Bi       8.10065945       9.55766949       7.95956214      -0.00080332       0.00003592       0.00018686
4
Lattice="15.66473324263961 0.0 0.0 0.0 15.66473324263961 0.0 0.0 0.0 15.66473324263961" Properties=species:S:1:pos:R:3:forces:R:3 config_type=qcd dft_energy=-14.11527196 gap_energy=-13.969498398331929 relaxed_gap_energy=-13.972575675641629 energy=-13.972575675641629 free_energy=-13.972575675641629 pbc="T T T"
Bi       6.51717933       6.95855528       6.86643387       0.00015864      -0.00047532      -0.00040895
Bi       8.26120169       9.42425804       6.99074947      -0.00017551       0.00035744       0.00027223
Bi       9.33912985       6.76178364       7.93194085      -0.00032948      -0.00030486      -0.00000778
Bi       7.21195563       8.18486951       9.54034229       0.00034634       0.00042274       0.00014450
5
Lattice="13.85366019509103 0.0 0.0 0.0 13.85366019509103 0.0 0.0 0.0 13.85366019509103" Properties=species:S:1:pos:R:3:forces:R:3 config_type=qcd dft_energy=-16.92546011 gap_energy=-17.277393158895762 relaxed_gap_energy=-17.284302263381107 energy=-17.284302263381107 free_energy=-17.284302263381107 pbc="T T T"
Bi       8.77464951       8.58958237       7.22199859      -0.00012707      -0.00002048       0.00013373
Bi       7.76210968       6.72349812       5.11978257       0.00002330       0.00008439      -0.00027236
Bi       6.69417818       4.83428990       7.28048886      -0.00034279       0.00052059       0.00024825
Bi       6.48777954       7.48688832       8.79719464       0.00004720      -0.00033727      -0.00036843
Bi       4.91543358       6.99989177       6.21468583       0.00039935      -0.00024724       0.00025881
6
Lattice="30.0 0.0 0.0 0.0 30.0 0.0 0.0 0.0 30.0" Properties=species:S:1:pos:R:3:forces:R:3 config_type=qcd dft_energy=-20.88783625 gap_energy=-21.42863059134486 relaxed_gap_energy=-21.429425651482905 energy=-21.429425651482905 free_energy=-21.429425651482905 pbc="T T T"
Bi      10.64618154       7.53039614       8.16291826      -0.00059941       0.00077884       0.00007719
Bi       7.95648787       7.57422331       6.76566482      -0.00024177      -0.00039087      -0.00032198
Bi      10.17420894      10.42049195       9.15045809      -0.00008446      -0.00004112       0.00032429
Bi       7.48341245      10.46331008       7.75529585       0.00054907      -0.00030501       0.00018893
Bi       7.68706061       9.51232875      10.62638577       0.00038179       0.00004772      -0.00038255
Bi       8.15759337       6.62283618       9.63667918      -0.00000521      -0.00008956       0.00011413
7
Lattice="20.03934866479137 0.0 0.0 0.0 20.03934866479137 0.0 0.0 0.0 20.03934866479137" Properties=species:S:1:pos:R:3:forces:R:3 config_type=qcd dft_energy=-24.33793681 gap_energy=-24.817246906430718 relaxed_gap_energy=-24.956340691562623 energy=-24.956340691562623 free_energy=-24.956340691562623 pbc="T T T"
Bi       9.18149603      10.44023692      12.22468698       0.00050353       0.00032184      -0.00023680
Bi      10.40516763      10.19524124       7.30836522      -0.00029092      -0.00010093       0.00026198
Bi       8.60955739      11.67108241       9.38909912       0.00023217      -0.00024017       0.00011948
Bi       9.85630320       7.66885751      11.24599747      -0.00006071      -0.00040392      -0.00025929
Bi      11.72227404      11.81268075       9.48501652      -0.00011200       0.00032736      -0.00025904
Bi       8.30082752       8.62716264       8.79225030       0.00027925       0.00015634       0.00000592
Bi      12.06209452       9.72245884      11.69230471      -0.00055132      -0.00006052       0.00036774
7
Lattice="20.16900189416995 0.0 0.0 0.0 20.16900189416995 0.0 0.0 0.0 20.16900189416995" Properties=species:S:1:pos:R:3:forces:R:3 config_type=qcd dft_energy=-24.29398317 gap_energy=-24.377267967441476 relaxed_gap_energy=-24.42308794027229 energy=-24.42308794027229 free_energy=-24.42308794027229 pbc="T T T"
Bi      10.09565606       7.64996366       9.35547369      -0.00017489       0.00013120      -0.00000077
Bi      12.44040068       9.41118572      10.14351897      -0.00006514       0.00011647      -0.00009624
Bi       9.17748611      10.36106601      12.97783782       0.00033669       0.00031022       0.00036398
Bi       7.75988549       9.16112170      10.68110089      -0.00028021      -0.00082446      -0.00043220
Bi      11.13626381       9.76663785       7.44300825       0.00003457       0.00017333       0.00024872
Bi       8.60299925      12.10518784      10.66418326       0.00003409       0.00039588      -0.00006147
Bi      11.37881523      12.13634385       9.32638375       0.00011489      -0.00030264      -0.00002202
8
Lattice="23.3220264895387 0.0 0.0 0.0 23.3220264895387 0.0 0.0 0.0 23.3220264895387" Properties=species:S:1:pos:R:3:forces:R:3 config_type=qcd dft_energy=-28.40110763 gap_energy=-27.93858015406299 relaxed_gap_energy=-27.94515148897773 energy=-27.94515148897773 free_energy=-27.94515148897773 pbc="T T T"
Bi      13.51603081      11.22253803       9.90456971       0.00035208      -0.00001225       0.00027209
Bi      10.98697821      12.81850378       9.46457586      -0.00014899       0.00029055       0.00001317
Bi      10.82590827       9.84705073       9.99498450      -0.00018273      -0.00028487       0.00029354
Bi      11.42957465      12.44147607      15.96391079       0.00000208       0.00004580       0.00056902
Bi      11.92008432      10.85548797       7.36391726      -0.00002037       0.00000657      -0.00057880
Bi       9.79550181      12.11445255      13.44209018      -0.00035094      -0.00000039      -0.00023560
Bi      12.48822348      13.48333836      13.33132521       0.00019001       0.00027841      -0.00025560
Bi      12.32580439      10.50525848      13.82273244       0.00015885      -0.00032382      -0.00007781
8
Lattice="30.0 0.0 0.0 0.0 30.0 0.0 0.0 0.0 30.0" Properties=species:S:1:pos:R:3:forces:R:3 config_type=qcd dft_energy=-28.38749883 gap_energy=-28.728755525657874 relaxed_gap_energy=-28.7566454257107 energy=-28.7566454257107 free_energy=-28.7566454257107 pbc="T T T"
Bi      10.29121823      11.69138528       8.16081048      -0.00003475       0.00004828       0.00006323
Bi       9.07880784      11.15989806      10.91819094       0.00009074      -0.00027949       0.00005903
Bi      10.71668011       8.97757152       6.91144776       0.00013508      -0.00020169      -0.00062584
Bi       7.95682375      10.19664202       6.85307587      -0.00032854       0.00014982       0.00029738
Bi       6.75393561       9.67346296       9.61655670       0.00009361       0.00012510      -0.00016962
Bi      10.31766727       8.49501745      11.76728388      -0.00028021       0.00012179       0.00018337
Bi      10.73019108       6.92900789       9.22082104       0.00059184      -0.00005829       0.00018905
Bi       7.98067986       7.00210609      10.46209348      -0.00026777       0.00009449       0.00000340
8
Lattice="30.0 0.0 0.0 0.0 30.0 0.0 0.0 0.0 30.0" Properties=species:S:1:pos:R:3:forces:R:3 config_type=qcd dft_energy=-28.35702686 gap_energy=-27.938295334221337 relaxed_gap_energy=-27.945151521971752 energy=-27.945151521971752 free_energy=-27.945151521971752 pbc="T T T"
Bi      11.37586179       8.90150482      12.99639653       0.00001137      -0.00010756      -0.00002630
Bi      13.19200692      11.21331322      12.29346923       0.00000742       0.00002581      -0.00005266
Bi      11.74724345      10.68330855       8.51689121       0.00003879      -0.00004472       0.00003936
Bi      12.69996324      10.50457646      15.19044869       0.00002657      -0.00001962       0.00008778
Bi      10.48907404      11.73961091      13.54011962      -0.00004537       0.00010137      -0.00000882
Bi       9.97553763      13.07233750       9.05589617       0.00001389       0.00011935       0.00000288
Bi       8.89269643      10.27421321       9.42308757      -0.00001520      -0.00009901       0.00004855
Bi       9.46113544      11.32240635       6.64548372      -0.00003749       0.00002437      -0.00009079
8
Lattice="30.0 0.0 0.0 0.0 30.0 0.0 0.0 0.0 30.0" Properties=species:S:1:pos:R:3:forces:R:3 config_type=qcd dft_energy=-28.35548613 gap_energy=-27.941782113661546 relaxed_gap_energy=-28.06760884286909 energy=-28.06760884286909 free_energy=-28.06760884286909 pbc="T T T"
Bi      14.40879388      11.61019279      10.67882992       0.00016392      -0.00016858      -0.00022781
Bi      14.23814302      10.86862121      13.60484997       0.00004552      -0.00032353       0.00002205
Bi       6.43315360      10.36396088      10.36457467      -0.00001416       0.00015174      -0.00009664
Bi      11.82216592      10.52924202      11.81649982      -0.00013309       0.00000122       0.00021316
Bi       7.68156226      12.50172611       8.63246536      -0.00007258      -0.00025417       0.00009431
Bi       9.24272481       9.99846292       9.30334541       0.00002199       0.00004126      -0.00013158
Bi      14.21503098       8.70659063      11.49149530       0.00006590       0.00051675       0.00015028
Bi       6.88106359       9.85079827       7.41891124      -0.00007751       0.00003531      -0.00002376
8
Lattice="20.45856119496075 0.0 0.0 0.0 20.45856119496075 0.0 0.0 0.0 20.45856119496075" Properties=species:S:1:pos:R:3:forces:R:3 config_type=qcd dft_energy=-28.35353249 gap_energy=-27.94969804440592 relaxed_gap_energy=-28.13329948151859 energy=-28.13329948151859 free_energy=-28.13329948151859 pbc="T T T"
Bi      10.46286935       8.86092000       7.65487978      -0.00034171       0.00010463       0.00011537
Bi       7.84159239       7.37427587       7.38734689       0.00014423       0.00002975      -0.00008206
Bi       7.86529509      10.18856369       8.49703187       0.00021916      -0.00006928      -0.00000933
Bi       8.99895094       7.89289516      10.13944761       0.00002739       0.00009921       0.00011727
Bi      10.77253597      11.04325115      10.63958405       0.00013566       0.00002796       0.00024110
Bi      13.07584430      10.81683412      12.59395929      -0.00020880      -0.00000649      -0.00003338
Bi      12.31899169      13.51718778      11.47207632      -0.00012812      -0.00005585      -0.00003419
Bi      10.49816506      12.14031700      13.44991898       0.00015218      -0.00012993      -0.00031477
9
Lattice="18.82536189758111 0.0 0.0 0.0 18.82536189758111 0.0 0.0 0.0 18.82536189758111" Properties=species:S:1:pos:R:3:forces:R:3 config_type=qcd dft_energy=-31.75111677 gap_energy=-32.19074173813318 relaxed_gap_energy=-32.28258349266334 energy=-32.28258349266334 free_energy=-32.28258349266334 pbc="T T T"
Bi       6.86151827       8.08448095      10.95391727       0.00000070      -0.00054532      -0.00079617
Bi       8.46756139      11.56161086       9.97258089      -0.00011553      -0.00031838      -0.00049944
Bi      10.71672434      11.84614389       7.92376253       0.00068320       0.00026906       0.00042963
Bi      10.46591272       7.24542330       9.55757893      -0.00032765       0.00055413       0.00014825
Bi      11.99797267       9.08904070       7.66181231      -0.00071784      -0.00013110      -0.00018354
Bi      12.31638301      10.68538121      10.18496412       0.00070508      -0.00030931      -0.00047919
Bi       7.70335705       7.04421632       8.26572952       0.00029637       0.00039997       0.00012551
Bi       9.75777791       9.35447920      11.66380405      -0.00048927       0.00063101       0.00056157
Bi       6.42692118       9.80335214       8.52997894      -0.00003507      -0.00055006       0.00069338
10
Lattice="19.40039565005785 0.0 0.0 0.0 19.40039565005785 0.0 0.0 0.0 19.40039565005785" Properties=species:S:1:pos:R:3:forces:R:3 config_type=qcd dft_energy=-35.78621317 gap_energy=-35.93470699680658 relaxed_gap_energy=-35.99086448077884 energy=-35.99086448077884 free_energy=-35.99086448077884 pbc="T T T"
Bi      12.09770319       9.74417114       8.50429349      -0.00044494       0.00011271       0.00005843
Bi       9.62889792      10.59178661       7.02771168       0.00034969       0.00025579       0.00033018
Bi      11.90595071      11.93816341      10.63967825      -0.00051423      -0.00015996       0.00040192
Bi       9.78102313      13.12883367       8.79095947       0.00051216      -0.00022291      -0.00022307
Bi      11.57533475       7.07868817       9.92955735      -0.00031184       0.00011086      -0.00035644
Bi       8.77189953       6.32166106       9.14101672      -0.00034654       0.00022692       0.00047154
Bi       9.03722855      12.25005490      11.57098219      -0.00018865      -0.00003670      -0.00037409
Bi       9.34252556       7.35292346      11.96269017       0.00067066       0.00010457      -0.00037308
Bi       7.39746616       8.94898210       8.25962963       0.00007690      -0.00032875       0.00001355
Bi       7.46394874       9.64671374      11.17545932       0.00019679      -0.00006254       0.00005106
11
Lattice="21.31041890427267 0.0 0.0 0.0 21.31041890427267 0.0 0.0 0.0 21.31041890427267" Properties=species:S:1:pos:R:3:forces:R:3 config_type=qcd dft_energy=-39.23752477 gap_energy=-39.20388174700952 relaxed_gap_energy=-39.724385205613416 energy=-39.724385205613416 free_energy=-39.724385205613416 pbc="T T T"
Bi      12.77277225      14.04653042      10.50760586      -0.00017860       0.00000283       0.00021076
Bi      12.50289941      12.72602905       7.77355240      -0.00030388      -0.00005821      -0.00001606
Bi      10.10861119      13.89137492       9.14630963      -0.00007809      -0.00022739       0.00011863
Bi      13.07247035      11.26677079      11.83123625      -0.00009433       0.00001867       0.00016520
Bi      12.80061739       9.93795914       9.07998372      -0.00010257      -0.00010308      -0.00018811
Bi       8.63632379      11.33611896      10.52628203       0.00062392      -0.00005115      -0.00008748
Bi       9.92520107       9.14252525       8.83446687       0.00009129      -0.00012780      -0.00059005
Bi      10.34244994      11.18033939      13.05613982       0.00017601       0.00027012       0.00037171
Bi       9.64996146       6.86286493      10.88976668      -0.00001912      -0.00024530      -0.00029963
Bi       9.92011629       8.17979180      13.61802690      -0.00040081       0.00034633       0.00011661
Bi       7.47588083       8.63699932      11.94393381       0.00028618       0.00017498       0.00019842
12
Lattice="19.6706996435198 0.0 0.0 0.0 19.6706996435198 0.0 0.0 0.0 19.6706996435198" Properties=species:S:1:pos:R:3:forces:R:3 config_type=qcd dft_energy=-43.29838145 gap_energy=-43.402503435898716 relaxed_gap_energy=-43.45683894469676 energy=-43.45683894469676 free_energy=-43.45683894469676 pbc="T T T"
Bi      11.11320522      13.46435660       9.02377099      -0.00037081       0.00035153      -0.00022961
Bi      10.39887764      11.89770490       6.53544376      -0.00023708       0.00038113      -0.00049282
Bi      11.75461364      11.38389436      11.21733319       0.00052451      -0.00007885       0.00028207
Bi       8.21018731      13.05738182       8.27328534       0.00012942      -0.00030935       0.00089586
Bi      12.50089480       8.91955467       9.62070224       0.00053987      -0.00010168       0.00025273
Bi       9.06670148      10.76534059      12.39217351      -0.00056026      -0.00061030       0.00006244
Bi      11.45778689       6.60656185      11.38552199       0.00044669      -0.00019362       0.00025731
Bi      10.62278243       8.90768752       7.28402708      -0.00031546      -0.00042821      -0.00037461
Bi       7.16485936      10.74186331      10.03412870       0.00023815       0.00032584      -0.00020479
Bi       9.28506801       7.77359826      13.13835028      -0.00014381       0.00061985      -0.00062889
Bi       8.54860319       6.21105249      10.65382890      -0.00060751       0.00019841       0.00051761
Bi       7.90061789       8.29520152       8.46563186       0.00035629      -0.00015474      -0.00033729
13
Lattice="19.92697957451726 0.0 0.0 0.0 19.92697957451726 0.0 0.0 0.0 19.92697957451726" Properties=species:S:1:pos:R:3:forces:R:3 config_type=qcd dft_energy=-46.74760239 gap_energy=-47.0999222182418 relaxed_gap_energy=-47.16055078189652 energy=-47.16055078189652 free_energy=-47.16055078189652 pbc="T T T"
Bi      10.95542038       9.30752732       6.75475638       0.00014855      -0.00027450       0.00001018
Bi      13.00077904       6.41283560       9.25263496       0.00032268      -0.00023502      -0.00006181
Bi      10.78782410       6.24535152       7.16542893       0.00045172       0.00031688       0.00028369
Bi      13.15771204       9.47425999       8.83755065      -0.00050239       0.00005019       0.00058896
Bi      10.90357262      13.10486765      10.94191729       0.00018012       0.00051309      -0.00037804
Bi       8.70612779      12.94470464       8.85157110      -0.00003966      -0.00069069      -0.00016524
Bi      11.79139868      10.25065339      11.43161404       0.00037682      -0.00041938      -0.00017680
Bi       8.38670810       9.99935131       8.20686148      -0.00006327       0.00046846      -0.00018489
Bi       8.77323987      13.21123986      13.18333761       0.00005272       0.00059401       0.00028275
Bi      10.15802371       5.94461386      10.08079380      -0.00052596      -0.00034710      -0.00066318
Bi       9.12961201       8.88996280      10.92750269      -0.00027922       0.00029658       0.00001438
Bi       6.56953915      13.05566372      11.08552606      -0.00046478      -0.00040944       0.00042126
Bi       7.20540975      10.68433557      12.80587225       0.00034266       0.00013692       0.00002873
14
Lattice="30.0 0.0 0.0 0.0 30.0 0.0 0.0 0.0 30.0" Properties=species:S:1:pos:R:3:forces:R:3 config_type=qcd dft_energy=-50.74413032 gap_energy=-50.5433132944002 relaxed_gap_energy=-50.728307176592175 energy=-50.728307176592175 free_energy=-50.728307176592175 pbc="T T T"
Bi       7.23211263      10.68201431      12.11655958      -0.00001050       0.00018700      -0.00050359
Bi       9.91899537      11.94970791      12.52358112      -0.00003855       0.00048332      -0.00073709
Bi       7.65454491       8.39773762      14.15312692      -0.00022248      -0.00073651       0.00057707
Bi      10.21818904      13.71675353      10.00445835       0.00001274       0.00013666       0.00013120
Bi      13.01997982      14.53154537      10.91731936      -0.00030212      -0.00004623       0.00089534
Bi      11.76530167       9.69203296      11.75196687       0.00004241      -0.00011758       0.00014462
Bi      10.41561476       7.40912154      13.48052784       0.00047537       0.00032562      -0.00067077
Bi       8.06993258       6.42649792      11.87261096      -0.00027476       0.00056489      -0.00001148
Bi       7.64844843       8.69807518       9.82080660      -0.00016342      -0.00051275       0.00078935
Bi      14.29948866      11.80292516      10.38789714       0.00056222       0.00011903      -0.00044777
Bi      14.70692806      14.14340217       8.43552035      -0.00039135      -0.00039679       0.00020842
Bi      10.54169470       8.98079205       9.08639378       0.00009187       0.00081060      -0.00020570
Bi      10.62717585      11.76426482       7.74437648      -0.00032110      -0.00041019      -0.00023041
Bi      13.65450821      11.49743208       7.41224855       0.00053968      -0.00040706       0.00006080
14
Lattice="23.84125503004348 0.0 0.0 0.0 23.84125503004348 0.0 0.0 0.0 23.84125503004348" Properties=species:S:1:pos:R:3:forces:R:3 config_type=qcd dft_energy=-50.72773142 gap_energy=-50.67734567479604 relaxed_gap_energy=-50.83812886192249 energy=-50.83812886192249 free_energy=-50.83812886192249 pbc="T T T"
Bi      14.37875947      10.33922514      15.60581752      -0.00088492       0.00014110       0.00015324
Bi      11.50525585      10.29841017      16.53399012       0.00024948      -0.00010652       0.00009735
Bi      11.85739404       8.88791550      12.06757803      -0.00001245       0.00001695       0.00006206
Bi      12.93882084      12.92059802      16.20782036       0.00030417       0.00053015       0.00042952
Bi      14.09717233      10.86550532      12.54178538       0.00040077      -0.00013949      -0.00011875
Bi       9.80367410       9.98939932      13.95437155      -0.00059718      -0.00020642       0.00014321
Bi      11.14804869      10.15230205       9.32167624      -0.00016430       0.00014430      -0.00007128
Bi       9.14353028      12.26742943      10.00117945       0.00020053      -0.00002689       0.00003832
Bi       9.71066889      12.86707700      12.98393698      -0.00016892      -0.00058777      -0.00008522
Bi      13.75937284      11.73148071       9.07012394       0.00022552       0.00026455      -0.00006902
Bi      12.64043906      13.49175366      13.12207525       0.00066930      -0.00010733      -0.00071368
Bi      10.27630714      14.78674411       8.66841333       0.00014708      -0.00008620       0.00026287
Bi      12.52935133      13.63523132       6.99500771      -0.00033392       0.00007026      -0.00064874
Bi      13.09999035      14.65571348       9.81500935      -0.00003515       0.00009332       0.00052012
15
Lattice="23.02159776485935 0.0 0.0 0.0 23.02159776485935 0.0 0.0 0.0 23.02159776485935" Properties=species:S:1:pos:R:3:forces:R:3 config_type=qcd dft_energy=-53.95042902 gap_energy=-54.34721304301809 relaxed_gap_energy=-54.44343796097769 energy=-54.44343796097769 free_energy=-54.44343796097769 pbc="T T T"
Bi      16.05417502      11.78092506       8.51470423      -0.00035511      -0.00021344      -0.00016907
Bi      16.84028384      11.89549164      11.45562928       0.00011747       0.00040300      -0.00002084
Bi      15.09312842      14.02007509      10.26230149       0.00033340      -0.00020040       0.00009132
Bi      14.04254514       9.49313882       9.07666862       0.00016758       0.00010980      -0.00000061
Bi      14.88806238       9.56983856      12.02349448      -0.00006187       0.00019644      -0.00038289
Bi      11.57945540      11.18224882       8.82725793      -0.00030821      -0.00011055       0.00003664
Bi      12.15311618      13.06957335      11.16910297       0.00008778      -0.00009550       0.00036474
Bi      12.69931362      11.12380325      13.38552794      -0.00017634       0.00020482       0.00039285
Bi       9.30655453       9.62562077      10.19108430       0.00040470      -0.00007163       0.00019020
Bi      10.36919459       9.14108831      12.94433946      -0.00045793       0.00005065      -0.00046598
Bi       9.15314841      14.16794979      11.64526331       0.00048833      -0.00013961       0.00025133
Bi       7.41940576      12.03959300      10.46159221      -0.00000296      -0.00030379       0.00007772
Bi       8.36160021      10.39457827      14.90322333      -0.00003995      -0.00012247      -0.00006902
Bi       8.47622801      13.41598029      14.51959379      -0.00006849       0.00012871      -0.00038469
Bi       6.22577174      11.74207820      13.28219992      -0.00012841       0.00016397       0.00008829
15
Lattice="22.49389087497606 0.0 0.0 0.0 22.49389087497606 0.0 0.0 0.0 22.49389087497606" Properties=species:S:1:pos:R:3:forces:R:3 config_type=qcd dft_energy=-53.92980029 gap_energy=-53.86083382886936 relaxed_gap_energy=-53.955019135887255 energy=-53.955019135887255 free_energy=-53.955019135887255 pbc="T T T"
Bi      11.62667943      12.37597955       8.39322939       0.00000474      -0.00006504       0.00029455
Bi      11.55994918       9.47351792       9.30236145       0.00078298      -0.00001237       0.00035332
Bi       8.94063206      16.15991605       9.18811870      -0.00033380      -0.00032651       0.00037561
Bi       8.69448570      13.19626945       8.44070281      -0.00041760      -0.00045154       0.00007287
Bi      11.84451907      16.61340332       9.68683399       0.00028184       0.00051148      -0.00012588
Bi      12.77464635      13.99048000      10.72597597      -0.00008508      -0.00013620      -0.00025402
Bi      14.11163359       9.13452677      10.91044887      -0.00085651      -0.00032010       0.00013436
Bi      13.44598085       6.22294563      11.68591724      -0.00001012       0.00040721       0.00028394
Bi       8.06723054      14.08275055      11.26892410       0.00080177       0.00036966       0.00027697
Bi      10.63037712      13.79891557      12.88694691      -0.00031650       0.00037928      -0.00018675
Bi       9.54194692       9.18082665      11.53440266       0.00016031       0.00015086      -0.00060195
Bi      12.82960005       7.11623964      14.52108303       0.00012567      -0.00050622       0.00022120
Bi      13.48824514      10.03047042      13.75306169       0.00081663       0.00047455      -0.00023526
Bi      10.57593243       6.44704054      12.61649672      -0.00035997       0.00003238      -0.00020509
Bi      10.57232311      10.88089950      13.78967802      -0.00059435      -0.00050745      -0.00040386
15
Lattice="21.1277362440608 0.0 0.0 0.0 21.1277362440608 0.0 0.0 0.0 21.1277362440608" Properties=species:S:1:pos:R:3:forces:R:3 config_type=qcd dft_energy=-53.92435563 gap_energy=-54.28835353020081 relaxed_gap_energy=-54.42482221679806 energy=-54.42482221679806 free_energy=-54.42482221679806 pbc="T T T"
Bi      14.37448801      13.30471465       7.31260088       0.00044168       0.00082310      -0.00018498
Bi      11.82805500      14.86206820       7.83674611       0.00052566      -0.00034818       0.00052219
Bi      10.91770474      10.43599233       7.72421317      -0.00020442       0.00001712       0.00023210
Bi      13.70943488      10.66320430       8.79670534       0.00008897      -0.00013864       0.00041312
Bi      14.09310772      14.97423512       9.79384043      -0.00053879      -0.00049304      -0.00031587
Bi      10.22462777      12.79425981       9.59540432      -0.00012112       0.00016618      -0.00055386
Bi       9.84811612       7.93185597       9.13750337      -0.00018390      -0.00008751       0.00005384
Bi       7.27119827       9.15910666      10.03376506      -0.00022547       0.00018780       0.00015855
Bi      12.78632394      12.37596634      11.19920327      -0.00034795      -0.00026104       0.00007722
Bi       6.41640166       7.06175197      12.10601523       0.00034182      -0.00042276       0.00007863
Bi      11.28321735       7.69821327      11.83841401      -0.00025648       0.00019813       0.00006336
Bi       8.35148450      11.15454386      12.12218814       0.00010356       0.00020523       0.00001600
Bi      11.06704118      10.37424911      13.12705168       0.00012835      -0.00044415      -0.00041236
Bi       8.98704100       6.61166159      13.63080448       0.00030930       0.00051690      -0.00018811
Bi       7.29977971       9.05619866      14.20356633      -0.00006120       0.00008086       0.00004016
15
Lattice="22.29907416592907 0.0 0.0 0.0 22.29907416592907 0.0 0.0 0.0 22.29907416592907" Properties=species:S:1:pos:R:3:forces:R:3 config_type=qcd dft_energy=-53.92216022 gap_energy=-54.194945831026146 relaxed_gap_energy=-54.356071199394606 energy=-54.356071199394606 free_energy=-54.356071199394606 pbc="T T T"
Bi      16.07014504       9.66440470      10.22185092       0.00050613       0.00032065      -0.00007637
Bi      15.82794241      10.16713056      13.20192307      -0.00016166      -0.00011991       0.00028007
Bi      11.86409907       8.02758618      11.97931422       0.00053162       0.00001354      -0.00010769
Bi      13.27174238       8.67928574       9.34582687      -0.00010343      -0.00036340      -0.00019725
Bi      15.67114931      12.45354084      11.25072598       0.00030191      -0.00029666       0.00003995
Bi      12.77490469      10.37008285      13.58964866      -0.00070580      -0.00036660       0.00025462
Bi       8.92829608       8.90457494      11.43478763      -0.00021063      -0.00006880       0.00051339
Bi       9.10068880      10.22012808       8.75828274      -0.00014594       0.00022052      -0.00022162
Bi       8.14950651      11.16437939      13.36145464       0.00044711       0.00028759       0.00034154
Bi      11.95171239      11.33049269       8.70069729      -0.00053282       0.00027327      -0.00077428
Bi      12.46452285      12.53823858      11.43173118      -0.00032383       0.00050736       0.00013820
Bi       7.11977517      12.57797316       8.81480464       0.00031758      -0.00029085       0.00011205
Bi       6.11550679      12.73398754      11.64785926      -0.00000295       0.00001027      -0.00042405
Bi       9.79047888      13.61795670      12.87594385       0.00018546       0.00000202       0.00003382
Bi       8.14258589      14.79329429      10.62820529      -0.00010277      -0.00012898       0.00008763
16
Lattice="24.89107816582649 0.0 0.0 0.0 24.89107816582649 0.0 0.0 0.0 24.89107816582649" Properties=species:S:1:pos:R:3:forces:R:3 config_type=qcd dft_energy=-58.21434843 gap_energy=-57.98863507904537 relaxed_gap_energy=-58.136512999856514 energy=-58.136512999856514 free_energy=-58.136512999856514 pbc="T T T"
Bi      12.62652219      14.65132770      13.99951834      -0.00037992       0.00015615       0.00002699
Bi      10.45772227      16.92059344      13.51184968      -0.00018252      -0.00020442      -0.00072851
Bi      12.61133650      10.27897994      15.54938908       0.00016466       0.00007938       0.00010856
Bi      15.95868134       8.96538009      13.25783899       0.00012888      -0.00032910      -0.00009817