3
Lattice="16.34531128458016 0.0 0.0 0.0 16.34531128458016 0.0 0.0 0.0 16.34531128458016" Properties=species:S:1:pos:R:3:forces:R:3 config_type=qcd dft_energy=-18.99747897 gap_energy=-17.496627579153454 relaxed_gap_energy=-18.020853772040454 energy=-18.020853772040454 free_energy=-18.020853772040454 pbc="T T T"
C        8.17261826       8.17267493       8.17262431       0.00053517      -0.00027159       0.00039783
C        7.42016364       8.41435663       9.18650842      -0.00015294       0.00009897      -0.00035337
C        8.92518503       7.93093537       7.15883419      -0.00038223       0.00017262      -0.00004446
4
Lattice="16.92669568909565 0.0 0.0 0.0 16.92669568909565 0.0 0.0 0.0 16.92669568909565" Properties=species:S:1:pos:R:3:forces:R:3 config_type=qcd dft_energy=-26.33266216 gap_energy=-26.169608285349227 relaxed_gap_energy=-26.226797016116166 energy=-26.226797016116166 free_energy=-26.226797016116166 pbc="T T T"
C        9.37499544       7.30171110       7.22132281      -0.00000542      -0.00006152      -0.00007984
C        8.77047473       8.07198444       8.04489596      -0.00001865       0.00012976       0.00013880
C        7.55171617       9.62498578       9.70538335      -0.00006980       0.00005869       0.00003446
C        8.15620505       8.85471006       8.88178925       0.00009387      -0.00012692      -0.00009342
5
Lattice="18.16799966204072 0.0 0.0 0.0 18.16799966204072 0.0 0.0 0.0 18.16799966204072" Properties=species:S:1:pos:R:3:forces:R:3 config_type=qcd dft_energy=-35.52245504 gap_energy=-34.40782421188467 relaxed_gap_energy=-34.429729617287904 energy=-34.429729617287904 free_energy=-34.429729617287904 pbc="T T T"
C       10.26616309      11.20061156       8.21193531       0.00037132       0.00057270      -0.00028337
C        9.08397618       9.08401860       9.08401169       0.00018793      -0.00022741      -0.00014261
C        9.67809463      10.14771086       8.64573995       0.00005859       0.00053824      -0.00003622
C        8.48989985       8.02029015       9.52225763      -0.00026821      -0.00028511       0.00022270
C        7.90186541       6.96736799       9.95605455      -0.00034963      -0.00059841       0.00023950
6
Lattice="17.25964573944227 0.0 0.0 0.0 17.25964573944227 0.0 0.0 0.0 17.25964573944227" Properties=species:S:1:pos:R:3:forces:R:3 config_type=qcd dft_energy=-43.36784594 gap_energy=-41.08172493014257 relaxed_gap_energy=-41.9707217893619 energy=-41.9707217893619 free_energy=-41.9707217893619 pbc="T T T"
C        7.62641112       8.50589776       7.71927100       0.00025304      -0.00001053      -0.00010673
C        8.91029427       9.03919510       7.36320864      -0.00001673       0.00049283      -0.00061229
C        9.83285269       9.14069704       8.25127080      -0.00026819      -0.00042989       0.00013959
C        9.57947832       8.72039546       9.60007397      -0.00017449       0.00002808      -0.00024352
C        7.39960856       8.12976415       8.92644488       0.00039804      -0.00000945       0.00011040
C        8.43029226       8.24298770       9.91866793      -0.00019167      -0.00007104       0.00071255
7
Lattice="22.20652138180132 0.0 0.0 0.0 22.20652138180132 0.0 0.0 0.0 22.20652138180132" Properties=species:S:1:pos:R:3:forces:R:3 config_type=qcd dft_energy=-51.98631452 gap_energy=-50.8029877222053 relaxed_gap_energy=-50.83736991226587 energy=-50.83736991226587 free_energy=-50.83736991226587 pbc="T T T"
C       11.52438585       9.77748956       7.49328447      -0.00006255       0.00015126       0.00004389
C       11.38491557      10.21661288       8.68877471       0.00019709      -0.00037222      -0.00023143
C       11.24386533      10.66073085       9.89802482      -0.00021509       0.00055815       0.00017957
C       11.10326327      11.10336749      11.10321913       0.00007457      -0.00058757       0.00040725
C       10.96266659      11.54588012      12.30846399      -0.00002988       0.00040967      -0.00057362
C       10.82159229      11.98990829      13.51774517       0.00004556      -0.00020898       0.00044722
C       10.68213594      12.42883566      14.71331253      -0.00000970       0.00004968      -0.00027288
8
Lattice="14.48498129700125 0.0 0.0 0.0 14.48498129700125 0.0 0.0 0.0 14.48498129700125" Properties=species:S:1:pos:R:3:forces:R:3 config_type=qcd dft_energy=-59.64834294 gap_energy=-58.98016087908877 relaxed_gap_energy=-59.04113271414212 energy=-59.04113271414212 free_energy=-59.04113271414212 pbc="T T T"
C        5.18787139       8.71198065       5.22347134      -0.00005990      -0.00016587       0.00008117
C        4.37385814       9.29409659       4.42358274       0.00032411      -0.00015625       0.00025209
C        6.01138514       8.12303742       6.03272486       0.00013661       0.00030054       0.00001389
C        6.83170113       7.53640714       6.83883242      -0.00037588      -0.00011743      -0.00013175
C        7.65332247       6.94875179       7.64623992       0.00015498      -0.00000193      -0.00018177
C        8.47361722       6.36200763       8.45227619       0.00028002      -0.00024800       0.00018496
C        9.29711721       5.77293842       9.26145784      -0.00025396       0.00022893       0.00021052
C       10.11105249       5.19070555      10.06133986      -0.00020598       0.00016001      -0.00042911
9
Lattice="17.26886382633826 0.0 0.0 0.0 17.26886382633826 0.0 0.0 0.0 17.26886382633826" Properties=species:S:1:pos:R:3:forces:R:3 config_type=qcd dft_energy=-68.41956678 gap_energy=-67.08823477496153 relaxed_gap_energy=-67.24485918085375 energy=-67.24485918085375 free_energy=-67.24485918085375 pbc="T T T"
C        5.00755428       9.67884725       5.11423548       0.00041674      -0.00033732      -0.00009447
C        5.90803147       9.41936399       5.98782810      -0.00019638       0.00014207       0.00000511
C        6.81889042       9.15698487       6.87171240      -0.00058850       0.00030764       0.00018040
C        7.72621028       8.89577952       7.75251697      -0.00004589       0.00025249      -0.00001261
C        8.63447505       8.63445364       8.63439455       0.00025285       0.00023764      -0.00008625
C        9.54277526       8.37315993       9.51624886       0.00002007      -0.00041242      -0.00025653
C       10.45010477       8.11194105      10.39703719       0.00012070      -0.00043602       0.00005323
C       11.36081721       7.84947628      11.28104208       0.00005348      -0.00012445       0.00028421
C       12.26102847       7.58988068      12.15487160      -0.00003308       0.00037037      -0.00007309
10
Lattice="30.0 0.0 0.0 0.0 30.0 0.0 0.0 0.0 30.0" Properties=species:S:1:pos:R:3:forces:R:3 config_type=qcd dft_energy=-78.83231788 gap_energy=-76.15037346067362 relaxed_gap_energy=-76.6194239971224 energy=-76.6194239971224 free_energy=-76.6194239971224 pbc="T T T"
C        8.37775418       9.74015256      10.36278162      -0.00019874       0.00008817      -0.00075100
C        8.38202413      11.04418823      10.33985918      -0.00000264       0.00032212       0.00013474
C        9.15201783      12.09685950      10.33492774       0.00011251       0.00021466       0.00022567
C       11.63255402      12.09056708      10.37912806      -0.00024547      -0.00015885      -0.00077892
C        9.14119429       8.68316068      10.39474435       0.00039790       0.00032793       0.00072621
C       12.39196776       9.72960884      10.43398197      -0.00048359       0.00018258      -0.00014091
C       12.39611302      11.03366427      10.41109541      -0.00022166       0.00011100       0.00068422
C       10.39342536      12.49645974      10.34995354       0.00004954       0.00021591       0.00019910
C       10.38039153       8.27749058      10.42387462       0.00023635      -0.00089318      -0.00015475
C       11.62178237       8.67707250      10.43887903       0.00035579      -0.00041034      -0.00014437
11
Lattice="19.14197616452938 0.0 0.0 0.0 19.14197616452938 0.0 0.0 0.0 19.14197616452938" Properties=species:S:1:pos:R:3:forces:R:3 config_type=qcd dft_energy=-85.87235443 gap_energy=-84.07480098583139 relaxed_gap_energy=-85.11962271089098 energy=-85.11962271089098 free_energy=-85.11962271089098 pbc="T T T"
C        8.44999896       9.49604533       7.55293752      -0.00070882       0.00031750      -0.00001352
C        9.52399589       8.77663624       7.40260188       0.00024402      -0.00015681      -0.00052201
C       10.61291150       8.30947377       7.94081077       0.00021376      -0.00071609      -0.00025859
C        7.73201024      10.23921454       8.34404662      -0.00035181       0.00051888      -0.00015957
C       11.37094386       8.24273403       8.99653132       0.00070976       0.00004307       0.00028800
C        7.59779883      10.77030390       9.52453499      -0.00015400      -0.00009390       0.00073916
C        8.08996871      10.92063431      10.71988959       0.00066340      -0.00002440      -0.00013735
C       11.55759839       8.59771257      10.23460004      -0.00002721       0.00013063       0.00034262
C        9.05251378      10.64241568      11.55043705       0.00010456      -0.00051735      -0.00019270
C       11.11349994       9.26173828      11.26198079      -0.00058119       0.00033040       0.00026948
C       10.17962880      10.02396027      11.75249834      -0.00011248       0.00016806      -0.00035551
11
Lattice="19.49944535238484 0.0 0.0 0.0 19.49944535238484 0.0 0.0 0.0 19.49944535238484" Properties=species:S:1:pos:R:3:forces:R:3 config_type=qcd dft_energy=-85.86071062 gap_energy=-83.53743121282125 relaxed_gap_energy=-85.11962261109394 energy=-85.11962261109394 free_energy=-85.11962261109394 pbc="T T T"
C        8.59831102       9.42777675       7.77327395       0.00003266       0.00007681       0.00080122
C        9.19416780      10.57990624       7.66731870       0.00011439       0.00025776      -0.00020652
C        9.96631463      11.46839966       8.22235128       0.00002869      -0.00062435       0.00021151
C        8.36807659       8.37785275       8.50700862       0.00026247      -0.00025867      -0.00029912
C       10.66968361      11.81113337       9.26228389      -0.00004535       0.00049084       0.00009382
C        8.57655140       7.76345962       9.63516635       0.00016543       0.00060787       0.00025619
C       11.08107999      11.49970127      10.45703810      -0.00027952      -0.00022910      -0.00033066
C        9.15748916       7.77986294      10.79961297      -0.00010449       0.00001785       0.00002687
C       11.06971884      10.63245962      11.42733252       0.00014660      -0.00007838      -0.00034965
C        9.92633796       8.42153022      11.63075765      -0.00003304      -0.00033630      -0.00036446
C       10.63921845       9.48486702      11.86480542      -0.00028783       0.00007568       0.00016079
12
Lattice="19.38947650670108 0.0 0.0 0.0 19.38947650670108 0.0 0.0 0.0 19.38947650670108" Properties=species:S:1:pos:R:3:forces:R:3 config_type=qcd dft_energy=-92.81578564 gap_energy=-90.37923551871597 relaxed_gap_energy=-93.59012029919347 energy=-93.59012029919347 free_energy=-93.59012029919347 pbc="T T T"
C       12.07416356       9.29273835       9.00214653      -0.00011851      -0.00002821      -0.00007401
C        9.08238734       9.71456576      12.12903912       0.00034807      -0.00015557       0.00006196
C       12.08849754       9.24199340      10.30049983      -0.00022307       0.00009622       0.00037964
C        9.02822837       9.90394355       7.28390712       0.00025963      -0.00018589      -0.00024854
C        7.31549333      10.09668218      10.38721335      -0.00010549       0.00014690      -0.00017532
C       10.30709303       9.67490939       7.26068398      -0.00001271       0.00024614      -0.00022428
C       11.46146544       9.31258780      11.43643942       0.00050804       0.00001507       0.00018057
C        7.92775782      10.07694063       7.95288440       0.00018898       0.00004224       0.00031801
C        7.30076096      10.14751409       9.08886016       0.00032321      -0.00022470       0.00002607
C       11.42207568       9.45121362       7.88940280      -0.00058744      -0.00004141       0.00012511
C       10.36127997       9.48555995      12.10588862      -0.00021768      -0.00006498      -0.00055238
C        7.96765601       9.93821031      11.49989371      -0.00036302       0.00015419       0.00018316
12
Lattice="20.11432637933395 0.0 0.0 0.0 20.11432637933395 0.0 0.0 0.0 20.11432637933395" Properties=species:S:1:pos:R:3:forces:R:3 config_type=qcd dft_energy=-92.77974959 gap_energy=-91.7854390273186 relaxed_gap_energy=-91.85606834562884 energy=-91.85606834562884 free_energy=-91.85606834562884 pbc="T T T"
C       10.27914964       6.61036042      14.73965745       0.00035451       0.00013071      -0.00025125
C       10.18051136       8.14301247      12.65752118       0.00036821      -0.00021633       0.00054803
C       10.13143827       8.90875640      11.61707029       0.00006455      -0.00020800       0.00035091
C       10.32823719       5.85129849      15.77057003      -0.00040331       0.00064967      -0.00053540
C       10.22965415       7.37819379      13.69667906       0.00008922      -0.00038262      -0.00029172
C       10.03293219      10.43990040       9.53700199      -0.00001065       0.00009951       0.00033239
C        9.98333406      11.20552099       8.49716600      -0.00064212      -0.00021369      -0.00003954
C       10.08232551       9.67422181      10.57708802      -0.00059667      -0.00009307       0.00037473
C        9.93356861      11.97143290       7.45688341       0.00060220      -0.00007267       0.00009252
C        9.88407134      12.73634027       6.41783865       0.00042257      -0.00003807      -0.00029483
C        9.78605314      14.26286826       4.34369817      -0.00044651       0.00028758      -0.00012159
C        9.83468283      13.50405207       5.37478403       0.00019800       0.00005696      -0.00016425
13
Lattice="19.74976621750463 0.0 0.0 0.0 19.74976621750463 0.0 0.0 0.0 19.74976621750463" Properties=species:S:1:pos:R:3:forces:R:3 config_type=qcd dft_energy=-102.68696431 gap_energy=-101.70886061922013 relaxed_gap_energy=-102.03731634270028 energy=-102.03731634270028 free_energy=-102.03731634270028 pbc="T T T"
C       10.82886560       7.50650611       8.96081809      -0.00036610       0.00011906      -0.00040988
C       10.14619350       7.97341922       7.96044055      -0.00000376      -0.00038326      -0.00012495
C       11.43212250       8.18325724      11.31267591       0.00036932      -0.00040450      -0.00011820
C       11.29289332       7.58228845      10.17064087       0.00039974      -0.00011331       0.00043907
C        9.40136386       8.87582109       7.39862019      -0.00025490       0.00038970      -0.00023051
C       11.21470632       9.17169548      12.12535658      -0.00034012       0.00045385       0.00033981
C        8.76500632      10.00711595       7.40401887       0.00024518       0.00011105       0.00018451
C       10.69025918      10.32125876      12.42246751       0.00000057      -0.00014789       0.00001880
C        9.24387868      12.07371681      11.33151455       0.00031584      -0.00021567      -0.00016297
C        9.97899431      11.36852377      12.13595598      -0.00028898       0.00048678      -0.00012773
C        8.38301270      11.10813462       7.97553281       0.00005520       0.00011393       0.00031991
C        8.65340030      12.27513506      10.19328820       0.00003147      -0.00036263      -0.00027869
C        8.34278380      11.92660784       8.98215028      -0.00016345      -0.00004709       0.00015082
14
Lattice="21.73637241483567 0.0 0.0 0.0 21.73637241483567 0.0 0.0 0.0 21.73637241483567" Properties=species:S:1:pos:R:3:forces:R:3 config_type=qcd dft_energy=-112.90428799 gap_energy=-110.40323861578162 relaxed_gap_energy=-110.46488731696098 energy=-110.46488731696098 free_energy=-110.46488731696098 pbc="T T T"
C       12.49683780      10.47544585       8.48374821      -0.00022918      -0.00021034      -0.00007208
C       12.21942466      11.74155711       8.43837729      -0.00037965      -0.00038957      -0.00005282
C       11.67427245      12.83465677       8.87424932       0.00049068       0.00014749       0.00031781
C       12.45159834       9.28708745       9.00125797      -0.00006385       0.00020521       0.00014630
C       10.96962862      13.53832152       9.70514010       0.00030512      -0.00002051       0.00023691
C       12.09272919       8.41187674       9.88854438      -0.00006216       0.00028182      -0.00012454
C       10.24499194      13.71314180      10.76645267      -0.00060758      -0.00014006      -0.00039627
C       11.49136592       8.02323170      10.96992082       0.00096849       0.00019776      -0.00003010
C        9.64362807      13.32446505      11.84781118       0.00021275       0.00005268      -0.00002171
C       10.76675880       8.19810506      12.03123245      -0.00048896      -0.00041363      -0.00029388
C        9.28478250      12.44926485      12.73511150      -0.00000321       0.00021136      -0.00022747
C       10.06208764       8.90172069      12.86212848      -0.00042652      -0.00018857      -0.00009638
C        9.23956633      11.26092167      13.25262079      -0.00014543       0.00009325       0.00038527
C        9.51693466       9.99481064      13.29801172       0.00042949       0.00017311       0.00022896
15
Lattice="19.71568375480797 0.0 0.0 0.0 19.71568375480797 0.0 0.0 0.0 19.71568375480797" Properties=species:S:1:pos:R:3:forces:R:3 config_type=qcd dft_energy=-119.87951433 gap_energy=-118.04357575109256 relaxed_gap_energy=-118.87520167237321 energy=-118.87520167237321 free_energy=-118.87520167237321 pbc="T T T"
C        9.72540454       7.51610702       7.80491112      -0.00005449      -0.00033391      -0.00002679
C       10.79513029       8.14397622       7.42886953       0.00045359      -0.00006012      -0.00009733
C       11.49431331      12.36721836      10.71872083      -0.00034181       0.00011130      -0.00049993
C        8.67860709       7.29307219       8.53596666       0.00022606      -0.00016805       0.00008230
C       11.70282916       9.06816970       7.47280540      -0.00039874       0.00027889      -0.00036119
C       12.17727508      11.93468469       9.70556382      -0.00010560      -0.00010226       0.00053166
C        7.34245334       8.13935961      10.51786337       0.00007397      -0.00015657       0.00031732
C       12.29138588      10.12900773       7.92906584       0.00029427       0.00032871       0.00017329
C        7.83577274       7.51352837       9.49564311      -0.00067163       0.00015486      -0.00027177
C       10.52831930      12.36590463      11.58291355      -0.00018742      -0.00024149       0.00011153
C       12.45919688      11.14298055       8.71880620       0.00009392      -0.00016893       0.00013912
C        9.44639072      11.93095586      12.14882787       0.00029896       0.00007542      -0.00019327
C        7.28409678       9.06231122      11.42600758       0.00020995      -0.00003461       0.00024558
C        7.67082660      10.12279993      12.06300977      -0.00024256       0.00066407      -0.00024503
C        8.43562645      11.13755206      12.31865352       0.00035152      -0.00034727       0.00009450
16
Lattice="19.90226023004858 0.0 0.0 0.0 19.90226023004858 0.0 0.0 0.0 19.90226023004858" Properties=species:S:1:pos:R:3:forces:R:3 config_type=qcd dft_energy=-128.16391971 gap_energy=-126.73091385912494 relaxed_gap_energy=-127.2699941096239 energy=-127.2699941096239 free_energy=-127.2699941096239 pbc="T T T"
C        6.75583984       9.17206840       9.49155663       0.00062024       0.00008642      -0.00044256
C       10.87072104      12.62419832       8.20882578      -0.00054431      -0.00026743       0.00017212
C       11.97815541      12.31996881       8.80832827       0.00018612      -0.00014525       0.00055695
C        6.87360292      10.21528907       8.73244769       0.00002116      -0.00047427      -0.00018588
C        8.42559167      12.02751262       7.85755319      -0.00059529       0.00031214      -0.00004039
C        7.46006736      11.21789609       8.15869016       0.00017436       0.00013726      -0.00051018
C        9.62315615      12.52135942       7.87501428       0.00019180       0.00040818       0.00036877
C        9.03225404       7.27773412      11.69179154       0.00027705      -0.00012324       0.00059395
C        7.12505079       8.24737154      10.32040714       0.00028535      -0.00027892       0.00036896
C       10.27969629       7.38014159      12.02619234      -0.00070621      -0.00001755       0.00024640
C       12.77675834      11.65506239       9.58199187      -0.00001566      -0.00004159      -0.00042407
C        7.92455653       7.58220343      11.09290936      -0.00029474       0.00020702       0.00021170
C       13.14524313      10.73081546      10.41165330       0.00051038      -0.00024804       0.00041281
C       11.47720802       7.87408827      12.04496643       0.00004449       0.00047464      -0.00080419
C       13.02789950       9.68780019      11.17110682       0.00020520       0.00007719      -0.00076892
C       12.44228081       8.68457212      11.74464703      -0.00035992      -0.00010655       0.00024453
17
Lattice="19.66660031606232 0.0 0.0 0.0 19.66660031606232 0.0 0.0 0.0 19.66660031606232" Properties=species:S:1:pos:R:3:forces:R:3 config_type=qcd dft_energy=-136.76294921 gap_energy=-135.4984001937752 relaxed_gap_energy=-135.65068807815774 energy=-135.65068807815774 free_energy=-135.65068807815774 pbc="T T T"
C       11.04894012      12.79550523      11.30491905      -0.00000469       0.00021399      -0.00001888
C       12.38790336      10.77060326      12.07239836      -0.00008302       0.00000128       0.00029765
C       10.07878675      13.26672012      10.58803997       0.00025330      -0.00005389      -0.00000865
C       12.57584804       9.49036125      12.01945542      -0.00000873      -0.00001102      -0.00015973
C        9.07551175      13.27419246       9.76920001      -0.00068799       0.00014399      -0.00019600
C       11.86514502       7.23546556      11.07476573       0.00011113       0.00022610       0.00008863
C        8.17451633      12.81700436       8.95903659       0.00029812      -0.00013840       0.00003430
C       11.85492736      11.92425016      11.82301715       0.00026543      -0.00019763       0.00005554
C       11.06250079       6.56540599      10.31062448       0.00002388      -0.00037822       0.00008173
C        8.18661716       7.26295468       8.07265621      -0.00011885      -0.00021955      -0.00006669
C        7.49759635      11.95680807       8.26696093      -0.00039933      -0.00062628      -0.00029995
C       12.39336629       8.25642826      11.67122766       0.00015979       0.00006368       0.00009528
C        9.09004895       6.58009493       8.70089297      -0.00033640       0.00019349      -0.00034492
C        7.50554234       8.29290228       7.68217554       0.00003488       0.00091702       0.00012519
C        7.13608633      10.80982030       7.78640145       0.00047853       0.00031576       0.00019830
C       10.09386561       6.33661962       9.48204248       0.00010529      -0.00004794       0.00003926
C        7.13890013       9.53096616       7.58228870      -0.00009134      -0.00040239       0.00007893
18
Lattice="21.69880120207924 0.0 0.0 0.0 21.69880120207924 0.0 0.0 0.0 21.69880120207924" Properties=species:S:1:pos:R:3:forces:R:3 config_type=qcd dft_energy=-146.48700655 gap_energy=-143.915117480349 relaxed_gap_energy=-144.01851272428104 energy=-144.01851272428104 free_energy=-144.01851272428104 pbc="T T T"
C       11.70788593      13.16011791       8.05281952      -0.00007743      -0.00028889      -0.00058127
C       12.79623707      12.46118541       8.10895705       0.00037515       0.00014185       0.00079274
C       10.51599731      13.58030022       8.33390443      -0.00001246       0.00006499      -0.00002431
C        9.99089060       8.53861165      13.64589204      -0.00030779       0.00009928       0.00074975
C        9.36433933      13.67112620       8.91836502      -0.00017649       0.00025464       0.00033358
C       14.16548766      10.58793309       9.16660309      -0.00019203      -0.00016876      -0.00012962
C       13.64977002      11.56788790       8.49584044       0.00005702      -0.00046843       0.00021945
C       14.28125603       9.63946064      10.04020732      -0.00011226      -0.00008467      -0.00020052
C        7.71571635      12.86197428      10.68750433      -0.00009130      -0.00026560      -0.00001807
C       13.98312764       8.83685753      11.01136384      -0.00008513       0.00090761      -0.00005719
C        7.41753257      12.05945329      11.65871042       0.00059439      -0.00040694      -0.00020939
C       13.30696264       8.27714945      11.96304756       0.00058055      -0.00003591      -0.00026661
C        7.53336531      11.11091775      12.53225055      -0.00024882       0.00073901       0.00002984
C       12.33444240       8.02764848      12.78042401       0.00018147      -0.00052680      -0.00049685
C        8.04905873      10.13091880      13.20294726      -0.00007626       0.00046800      -0.00021495
C       11.18275891       8.11839338      13.36483321       0.00033828       0.00006946       0.00027912
C        8.39181452      13.42169750       9.73576977      -0.00018796      -0.00039143       0.00043156
C        8.90256779       9.23757734      13.58977093      -0.00055894      -0.00010741      -0.00063725
19
Lattice="22.71208201699091 0.0 0.0 0.0 22.71208201699091 0.0 0.0 0.0 22.71208201699091" Properties=species:S:1:pos:R:3:forces:R:3 config_type=qcd dft_energy=-153.61224491 gap_energy=-152.06666576804488 relaxed_gap_energy=-152.3745829597792 energy=-152.3745829597792 free_energy=-152.3745829597792 pbc="T T T"
C       10.64748138      11.25022621       7.48996622       0.00025938      -0.00037943      -0.00023182
C       11.08147306      10.04270813       7.66010472       0.00000139       0.00019041      -0.00002571
C       10.29031090      12.46920982       7.73867606      -0.00026626       0.00057110       0.00022312
C       11.54525066       8.97750230       8.23073889      -0.00015292       0.00012055      -0.00008527
C       10.04859945      13.56760539       8.37938489       0.00004228      -0.00017368       0.00016962
C       11.98850295       8.17004744       9.14008604       0.00001149      -0.00012723       0.00019277
C        9.94858015      14.42628695       9.34274130       0.00014720      -0.00036577      -0.00001013
C       12.36318092       7.70786098      10.28960093       0.00007029      -0.00002506       0.00007778
C       10.00110768      14.95217477      10.52429007      -0.00008674       0.00026282       0.00017809
C       12.62870332       7.64102336      11.55467343      -0.00008064       0.00022847       0.00028949
C       10.20041277      15.08849245      11.79593975      -0.00008326       0.00021578      -0.00037807
C       12.75629686       7.97678135      12.79821067       0.00007710      -0.00010546      -0.00004325
C       10.52494010      14.82044149      13.01995033       0.00005705      -0.00019996      -0.00017741
C       12.73220853       8.67865342      13.88549107       0.00008163       0.00004178       0.00002053
C       10.93957419      14.17683895      14.06361470      -0.00001462      -0.00020169      -0.00013361
C       12.55902894       9.67066843      14.69870093      -0.00017419       0.00007505      -0.00040495
C       11.39932703      13.22747854      14.81376049      -0.00002086       0.00011959       0.00025501
C       12.25543387      10.84538077      15.14955834      -0.00000352      -0.00021489      -0.00014227
C       11.85436639      12.07539840      15.18929035       0.00013520      -0.00003237       0.00022608
20
Lattice="20.10946049779636 0.0 0.0 0.0 20.10946049779636 0.0 0.0 0.0 20.10946049779636" Properties=species:S:1:pos:R:3:forces:R:3 config_type=qcd dft_energy=-161.97339699 gap_energy=-160.24807396161407 relaxed_gap_energy=-160.71991296863337 energy=-160.71991296863337 free_energy=-160.71991296863337 pbc="T T T"
C        8.48921287       9.23848532       6.31420054      -0.00014419      -0.00069629       0.00004180
C        9.27428410      10.21681042       5.99598891      -0.00015760       0.00030852       0.00029203
C       10.13572349      11.17931719       6.07513816      -0.00024541      -0.00057187      -0.00018156
C        7.85737732       8.33999836       6.99851474       0.00011947       0.00061327      -0.00006068
C        7.44063266       7.60940781       7.98201847       0.00017979      -0.00034847       0.00025789
C       10.98923518      12.03170101       6.54381279       0.00027144       0.00039575      -0.00021932
C        7.27981034       7.11814662       9.16843163      -0.00006935       0.00053313      -0.00054904
C       11.75132221      12.69063565       7.35608059      -0.00029693      -0.00016716      -0.00030787
C       12.71883024      13.19506527       9.66786688       0.00022115       0.00033410      -0.00025230
C        7.39061265       6.91439925      10.44158371       0.00004182      -0.00040977       0.00020033
C       12.34730518      13.09151958       8.43255168       0.00015514      -0.00005277       0.00058733
C        7.76218232       7.01796986      11.67688464      -0.00031931       0.00008684      -0.00053381
C       12.82962631      12.99128643      10.94101293      -0.00013812      -0.00030243       0.00059984
C        8.35816286       7.41885039      12.75335971       0.00032930       0.00011509       0.00024469
C       12.66878130      12.50004471      12.12742928       0.00004656       0.00025154      -0.00026824
C        9.12024529       8.07776102      13.56565182      -0.00027497      -0.00040440       0.00019360