3
Lattice="22.13247406686028 0.0 0.0 0.0 22.13247406686028 0.0 0.0 0.0 22.13247406686028" Properties=species:S:1:pos:R:3:forces:R:3 config_type=qcd dft_energy=-1.26225372 gap_energy=-0.9754268584789534 relaxed_gap_energy=-0.9794655639792884 energy=-0.9794655639792884 free_energy=-0.9794655639792884 pbc="T T T"
Ca       9.34233252       9.77015897      11.06623703      -0.00027632      -0.00010415       0.00000000
Ca      10.80587843      13.20725404      11.06623703      -0.00010196       0.00025215       0.00000000
Ca      13.05050015      10.22129810      11.06623703       0.00037828      -0.00014800       0.00000000
4
Lattice="21.75203257587223 0.0 0.0 0.0 21.75203257587223 0.0 0.0 0.0 21.75203257587223" Properties=species:S:1:pos:R:3:forces:R:3 config_type=qcd dft_energy=-2.76083484 gap_energy=-2.334340017055105 relaxed_gap_energy=-2.336741638944005 energy=-2.336741638944005 free_energy=-2.336741638944005 pbc="T T T"
Ca      10.67090998      12.47120439      12.43413201       0.00010874       0.00061412       0.00066681
Ca       8.85401954      10.36559239      10.05985933      -0.00042974      -0.00031355      -0.00042713
Ca      12.18558564      11.61713927       9.21687315       0.00010663      -0.00038724       0.00008391
Ca      11.79354999       9.05012911      11.79320066       0.00021436       0.00008667      -0.00032359
5
Lattice="26.34030425042934 0.0 0.0 0.0 26.34030425042934 0.0 0.0 0.0 26.34030425042934" Properties=species:S:1:pos:R:3:forces:R:3 config_type=qcd dft_energy=-3.85717292 gap_energy=-3.5515289407353565 relaxed_gap_energy=-3.5523597447095794 energy=-3.5523597447095794 free_energy=-3.5523597447095794 pbc="T T T"
Ca      15.27107005      13.17015213      13.17015213      -0.00018859       0.00000000       0.00000000
Ca      13.17053413      16.23526796      13.17015213      -0.00020432      -0.00037842      -0.00000000
Ca      13.17053413      10.10503629      13.17015213      -0.00020432       0.00037842      -0.00000000
Ca      12.11931116      13.17015213      14.98958777       0.00029861       0.00000000      -0.00027300
Ca      12.11931116      13.17015213      11.35071648       0.00029861       0.00000000       0.00027300
6
Lattice="23.43007110998549 0.0 0.0 0.0 23.43007110998549 0.0 0.0 0.0 23.43007110998549" Properties=species:S:1:pos:R:3:forces:R:3 config_type=qcd dft_energy=-4.87855556 gap_energy=-4.693899804188963 relaxed_gap_energy=-4.701091343986214 energy=-4.701091343986214 free_energy=-4.701091343986214 pbc="T T T"
Ca      12.91116852      13.95547274      12.83172929       0.00046609       0.00019234       0.00041290
Ca      14.30480532      10.81008154      11.30005770       0.00021673      -0.00005164      -0.00007518
Ca      11.57036029       8.58515173      10.17200536      -0.00019435       0.00028662      -0.00010735
Ca      11.16567400      12.30843004       9.99813448      -0.00030674      -0.00021472      -0.00033563
Ca      11.12719084      10.72092517      13.22064612       0.00027152      -0.00036304       0.00049750
Ca       9.21101435      13.91015211      12.76764040      -0.00045325       0.00015044      -0.00039224
7
Lattice="26.31951750576681 0.0 0.0 0.0 26.31951750576681 0.0 0.0 0.0 26.31951750576681" Properties=species:S:1:pos:R:3:forces:R:3 config_type=qcd dft_energy=-6.5871753 gap_energy=-6.174818325169373 relaxed_gap_energy=-6.1783713420009505 energy=-6.1783713420009505 free_energy=-6.1783713420009505 pbc="T T T"
Ca      16.39674375      13.15975875      13.15975875       0.00033306      -0.00000000      -0.00000000
Ca      14.16119093      16.23799475      13.15975875      -0.00078344       0.00054301      -0.00000000
Ca      14.16119093      10.08152275      13.15975875      -0.00078344      -0.00054301      -0.00000000
Ca      10.54078254      15.06318472      13.15975875      -0.00002468      -0.00037330      -0.00000000
Ca      10.54078254      11.25633278      13.15975875      -0.00002468       0.00037330      -0.00000000
Ca      13.15881029      13.15975875      14.97281826       0.00064160       0.00000000       0.00052393
Ca      13.15881029      13.15975875      11.34669924       0.00064160       0.00000000      -0.00052393
8
Lattice="26.13907889915426 0.0 0.0 0.0 26.13907889915426 0.0 0.0 0.0 26.13907889915426" Properties=species:S:1:pos:R:3:forces:R:3 config_type=qcd dft_energy=-7.62122368 gap_energy=-7.2708887377458264 relaxed_gap_energy=-7.279794637041422 energy=-7.279794637041422 free_energy=-7.279794637041422 pbc="T T T"
Ca      11.76861030      13.75937813      13.33272247      -0.00048534       0.00012984       0.00053502
Ca      12.15061011      12.57439235       9.80075995       0.00047402      -0.00016484       0.00055008
Ca      10.60476904      11.17194504      15.80688174      -0.00094743       0.00014168       0.00026357
Ca      14.19057030      12.18909875      15.61143725       0.00039535       0.00038129       0.00011334
Ca      12.56772829      10.21354631      12.78026330       0.00058738      -0.00040659      -0.00041376
Ca      14.76253816      15.75896001      14.36331116       0.00000126      -0.00079432      -0.00042535
Ca      15.10234380      12.90463137      12.02098310       0.00007839      -0.00016009      -0.00049435
Ca      13.40914560      15.98436364      10.83995664      -0.00010363       0.00087303      -0.00012854
9
Lattice="24.87387290564401 0.0 0.0 0.0 24.87387290564401 0.0 0.0 0.0 24.87387290564401" Properties=species:S:1:pos:R:3:forces:R:3 config_type=qcd dft_energy=-9.04953413 gap_energy=-8.693449643157653 relaxed_gap_energy=-8.732184499268602 energy=-8.732184499268602 free_energy=-8.732184499268602 pbc="T T T"
Ca      11.29389482      12.89550411      12.12511640       0.00014641       0.00013985      -0.00051279
Ca      11.94929426      11.45544606       8.74831769       0.00024125       0.00045994       0.00042889
Ca       9.97429273      10.63954314      14.78437525       0.00010294       0.00023056       0.00013074
Ca      13.56824862      11.51087649      14.67566258      -0.00002992       0.00009482      -0.00024585
Ca      12.12408237       9.32404458      11.91376803       0.00008045      -0.00016036      -0.00006340
Ca      14.03409742      15.03452788      13.31073915       0.00010961       0.00003208      -0.00002508
Ca      14.72779633      11.98983246      11.13237496      -0.00048763       0.00015593       0.00011931
Ca      13.11791907      14.94937933       9.60303665      -0.00012884      -0.00065998       0.00018831
Ca      11.14280248      14.13327403      15.63903737      -0.00003428      -0.00029285      -0.00002014
10
Lattice="24.27424996658997 0.0 0.0 0.0 24.27424996658997 0.0 0.0 0.0 24.27424996658997" Properties=species:S:1:pos:R:3:forces:R:3 config_type=qcd dft_energy=-10.79312151 gap_energy=-9.925744924658403 relaxed_gap_energy=-9.944613027272428 energy=-9.944613027272428 free_energy=-9.944613027272428 pbc="T T T"
Ca      10.81868745      12.78152783       9.24001429       0.00018605       0.00013328      -0.00034509
Ca      14.01724952      14.61344471      10.57859488      -0.00010077       0.00038455      -0.00021207
Ca      14.13034413      10.72420681       9.66145311      -0.00018097       0.00003408       0.00013281
Ca      11.03628355       9.15187285      11.48634988       0.00022794       0.00005265       0.00022589
Ca      12.28212594      12.14279458      12.13195211      -0.00012280      -0.00089696      -0.00003180
Ca       8.64334802      12.00600129      12.26290814       0.00001792      -0.00037760       0.00018812
Ca      14.30514599       9.81288874      13.54999181      -0.00061997       0.00009343      -0.00018156
Ca      10.86468269      15.03320511      12.87294884       0.00018905       0.00033547       0.00004410
Ca      14.19075655      13.70220938      14.46705424       0.00050455       0.00033039       0.00041400
Ca      11.08262598      11.40309853      15.11998256      -0.00010100      -0.00008929      -0.00023439
11
Lattice="26.37423521573382 0.0 0.0 0.0 26.37423521573382 0.0 0.0 0.0 26.37423521573382" Properties=species:S:1:pos:R:3:forces:R:3 config_type=qcd dft_energy=-12.01551283 gap_energy=-11.502418316017874 relaxed_gap_energy=-11.533075229961018 energy=-11.533075229961018 free_energy=-11.533075229961018 pbc="T T T"
Ca      11.44371464      11.37446237      10.31417289      -0.00043297      -0.00023704      -0.00054413
Ca      16.49037125      13.86505391      12.86052229      -0.00026116      -0.00053629      -0.00059091
Ca      11.33054394      14.01470183      15.89775049       0.00051889      -0.00054236      -0.00026518
Ca      10.16863560      14.34971520      12.17973957       0.00022709       0.00081671       0.00004169
Ca      14.57603800      11.30333636      15.63635756      -0.00048779       0.00049959      -0.00002849
Ca      13.81816239      14.24560889      10.03117623      -0.00007450       0.00013144       0.00061105
Ca      14.93162890      14.99879791      16.06065795      -0.00059440       0.00016684      -0.00004485
Ca      13.18695129      13.18701522      13.18681898       0.00059701       0.00029194       0.00060753
Ca      11.10866293      10.62612696      13.95961042       0.00039161      -0.00043382       0.00009676
Ca      14.75854372      10.51987906      11.81039872       0.00013244       0.00033655       0.00034610
Ca      13.24504103      16.57359599      13.12108860      -0.00001622      -0.00049358      -0.00022957
12
Lattice="27.08934238347452 0.0 0.0 0.0 27.08934238347452 0.0 0.0 0.0 27.08934238347452" Properties=species:S:1:pos:R:3:forces:R:3 config_type=qcd dft_energy=-13.16590475 gap_energy=-13.182914026943612 relaxed_gap_energy=-13.199834601177042 energy=-13.199834601177042 free_energy=-13.199834601177042 pbc="T T T"
Ca      14.80639104      16.60561574      12.45263070      -0.00003323      -0.00034678      -0.00023655
Ca      11.33801443      11.66669836      11.05144744      -0.00028830       0.00007983      -0.00008205
Ca      16.86392966      13.48179323      13.19736969       0.00030793       0.00016222       0.00003220
Ca      12.00002231      13.53513754      17.04055963       0.00011504       0.00007662       0.00050929
Ca      11.41643439      15.56680835      11.09678227      -0.00025944       0.00005808      -0.00020444
Ca      15.08072940      11.58803909      15.97950755      -0.00016234       0.00014304      -0.00017521
Ca      14.51326297      13.56415111      10.20603235       0.00050440       0.00021565      -0.00074221
Ca      15.15706786      15.38094753      16.02299181      -0.00018027      -0.00028209       0.00040154
Ca      13.15522293      13.55208476      13.58594976      -0.00019785      -0.00033694      -0.00054132
Ca      11.69758591      10.41202865      14.72486224       0.00039537      -0.00031829      -0.00013763
Ca      14.68294749      10.46221425      12.38041137      -0.00024048       0.00002969       0.00077246
Ca      11.82444590      16.72053569      14.79750948       0.00003917       0.00051897       0.00040391
12
Lattice="26.14364754366729 0.0 0.0 0.0 26.14364754366729 0.0 0.0 0.0 26.14364754366729" Properties=species:S:1:pos:R:3:forces:R:3 config_type=qcd dft_energy=-13.13772686 gap_energy=-12.837163801852462 relaxed_gap_energy=-13.207155648630136 energy=-13.207155648630136 free_energy=-13.207155648630136 pbc="T T T"
Ca      11.46443381      11.12396981      10.66397064      -0.00032691      -0.00016168       0.00006956
Ca       9.72269254      13.76371438      12.75588810      -0.00029857      -0.00018261       0.00007469
Ca      15.10809237      12.10791613      10.41034836       0.00024017       0.00009511       0.00027097
Ca      11.15914697      13.79192815      16.25546950       0.00063955      -0.00009338       0.00013783
Ca      15.55004226      15.33727906      12.34735201       0.00003969      -0.00027025       0.00029991
Ca      16.42126637      11.97746029      14.00905282      -0.00050095       0.00020328      -0.00008643
Ca      14.76610950      14.77144270      16.00346548      -0.00015257       0.00001940      -0.00007402
Ca      12.39950342      14.82972553      10.25444289       0.00001167      -0.00013734      -0.00052536
Ca      10.87295563      10.47818932      14.39435440      -0.00005092      -0.00022984      -0.00039251
Ca      14.06393551       9.29865954      12.70422636      -0.00013523       0.00016821       0.00035187
Ca      12.20699825      16.45159787      13.74765398       0.00004128       0.00034162       0.00041597
Ca      13.12670863      12.93000248      13.31566071       0.00049279       0.00024750      -0.00054248
13
Lattice="25.58620607562608 0.0 0.0 0.0 25.58620607562608 0.0 0.0 0.0 25.58620607562608" Properties=species:S:1:pos:R:3:forces:R:3 config_type=qcd dft_energy=-14.70260873 gap_energy=-15.023426849472648 relaxed_gap_energy=-15.026732021406291 energy=-15.026732021406291 free_energy=-15.026732021406291 pbc="T T T"
Ca      12.79314474      12.79316895      12.79309681      -0.00007212      -0.00011233       0.00000876
Ca      12.79286180      12.79275117      16.46374433      -0.00006279       0.00044199      -0.00049730
Ca      13.80784075       9.67271341      14.43416639      -0.00029771      -0.00014032      -0.00017896
Ca      10.13835866      10.86544930      14.43445513       0.00010581      -0.00043253       0.00019795
Ca      10.13696931      14.72219831      14.43478739       0.00062058       0.00016769       0.00012896
Ca      13.80678742      15.91330167      14.43378028      -0.00046697      -0.00023753       0.00011479
Ca      16.07423382      12.79267075      14.43350302       0.00036445       0.00004601       0.00041707
Ca      11.77940711       9.67286205      11.15239321       0.00049010       0.00031699      -0.00005600
Ca       9.51194430      12.79354576      11.15266681      -0.00032508      -0.00006756      -0.00036688
Ca      11.77838544      15.91345991      11.15206099       0.00026335       0.00019379       0.00014224
Ca      15.44780360      14.72072605      11.15180147      -0.00003662       0.00048022      -0.00026694
Ca      15.44926347      10.86402207      11.15141854      -0.00064876      -0.00019226      -0.00013445
Ca      12.79333910      12.79347010       9.12246513       0.00006577      -0.00046417       0.00049077
14
Lattice="27.45387129909159 0.0 0.0 0.0 27.45387129909159 0.0 0.0 0.0 27.45387129909159" Properties=species:S:1:pos:R:3:forces:R:3 config_type=qcd dft_energy=-16.06673735 gap_energy=-15.661365841002587 relaxed_gap_energy=-15.685240439266583 energy=-15.685240439266583 free_energy=-15.685240439266583 pbc="T T T"
Ca      12.05916243      16.16202246      17.25888070      -0.00046100       0.00000293       0.00049303
Ca      15.68568013      16.33624218      16.09910188       0.00020315       0.00007714       0.00035109
Ca      14.32938345      13.23797891      17.92892233      -0.00022086      -0.00000938      -0.00022970
Ca      12.88994275      17.42762104      13.77592397      -0.00002270       0.00064446      -0.00059323
Ca      15.92734128      15.50775744      12.31006132       0.00030972      -0.00028236       0.00046973
Ca      16.86778527      12.87458903      15.01682563       0.00019261      -0.00004143       0.00031627
Ca      15.30221625      13.99107327       8.81619885       0.00025949      -0.00008800      -0.00069502
Ca      14.89376844      11.86895739      11.84725871      -0.00027000      -0.00019733      -0.00028303
Ca      13.43736632      13.99597498      14.54024197      -0.00059232      -0.00062481       0.00035025
Ca      10.82202439      12.64049955      16.37982183       0.00062376       0.00020733       0.00022235
Ca      12.43539435      14.64919451      11.10510308      -0.00024127      -0.00016469       0.00036179
Ca      13.86024844      10.52256180      15.30223357       0.00038416       0.00057903      -0.00044599
Ca      12.43429766      11.53844619       9.07288028      -0.00029305      -0.00013448       0.00022443
Ca      11.23248795      11.42418035      12.72364498       0.00012831       0.00003161      -0.00054198
15
Lattice="26.26941389824672 0.0 0.0 0.0 26.26941389824672 0.0 0.0 0.0 26.26941389824672" Properties=species:S:1:pos:R:3:forces:R:3 config_type=qcd dft_energy=-17.75478205 gap_energy=-17.48902624752903 relaxed_gap_energy=-17.50748543434543 energy=-17.50748543434543 free_energy=-17.50748543434543 pbc="T T T"
Ca      11.21545705      15.77341364      11.31299113      -0.00003543      -0.00024133      -0.00024765
Ca      14.55219312      15.82809708      13.28279330      -0.00026136       0.00005384      -0.00046874
Ca      14.36710288      14.19926609       9.77094155      -0.00029342       0.00007388       0.00006436
Ca      10.83256088       9.59489693      12.04246455       0.00008547      -0.00013669       0.00024709
Ca      10.95933583      12.41341320       9.42382731       0.00031294       0.00051942       0.00022591
Ca      11.31239637      15.08839791      15.15050265       0.00029190       0.00006485       0.00000544
Ca      14.40523195      16.59830392      16.92384210       0.00024600      -0.00005877       0.00022060
Ca      14.17798187      10.40015538      10.24110161      -0.00012556       0.00007850       0.00000665
Ca      12.65000676      12.67313036      12.61542310      -0.00008217       0.00038053      -0.00086365
Ca       9.04040079      12.96562574      12.75491038       0.00004689      -0.00008368      -0.00009944
Ca      16.39656878      12.55056905      12.66304799      -0.00018794       0.00004602       0.00021002
Ca      14.42663494      13.01880829      15.89320669      -0.00036737      -0.00009557      -0.00006142
Ca      14.16211477       9.64818400      13.99927420       0.00018185      -0.00045217       0.00036032
Ca      11.01043257      11.22093055      15.54202058       0.00009863      -0.00013618       0.00020332
Ca      17.51218569      15.04741209      15.40425711       0.00008959      -0.00001263       0.00019720
16
Lattice="28.77453535163923 0.0 0.0 0.0 28.77453535163923 0.0 0.0 0.0 28.77453535163923" Properties=species:S:1:pos:R:3:forces:R:3 config_type=qcd dft_energy=-19.21617327 gap_energy=-18.87066837044534 relaxed_gap_energy=-18.8919237822437 energy=-18.8919237822437 free_energy=-18.8919237822437 pbc="T T T"
Ca      14.75292964      14.08219143      17.07006891       0.00070792      -0.00062748      -0.00031189
Ca      11.77346425      12.22909397      18.32635403       0.00003561      -0.00035313       0.00022962
Ca      12.04054065      16.05842721      18.45933750      -0.00027875       0.00023011       0.00012974
Ca      15.61781128      17.45569714      18.39685152       0.00035521       0.00009925       0.00029842
Ca      13.60617101      11.04489471      15.11768918      -0.00006183       0.00008371      -0.00013022
Ca      11.41555437      14.18696408      15.18309282      -0.00004871       0.00012544      -0.00044301
Ca      13.68292142      17.26944992      15.22471621      -0.00017703       0.00002482      -0.00048297
Ca      17.33548390      16.11497099      15.18615634      -0.00003279       0.00004470      -0.00014456
Ca      17.35378228      12.19737996      14.97451047       0.00010206      -0.00010815       0.00080858
Ca      14.69953283      14.17135266      13.36371851       0.00046931      -0.00035975      -0.00042284
Ca      14.64753976      14.25819670       9.76677204      -0.00025845       0.00016921       0.00031720
Ca      11.98455181      12.31269746      11.81066388       0.00004337       0.00024178      -0.00007285
Ca      15.62857328      11.08252672      11.75455424      -0.00017407      -0.00013562       0.00028034
Ca      12.02704864      16.15707724      11.88600240      -0.00049873       0.00038254      -0.00020792
Ca      15.68494273      17.34315272      11.87871708      -0.00023619      -0.00001124      -0.00013591
Ca      17.94543496      14.23220992      11.79707769       0.00005306       0.00019381       0.00028827
17
Lattice="27.72929346110872 0.0 0.0 0.0 27.72929346110872 0.0 0.0 0.0 27.72929346110872" Properties=species:S:1:pos:R:3:forces:R:3 config_type=qcd dft_energy=-20.80118705 gap_energy=-20.041039352404415 relaxed_gap_energy=-20.087973310133854 energy=-20.087973310133854 free_energy=-20.087973310133854 pbc="T T T"
Ca      13.86464673      18.03793791      16.19617579       0.00000000      -0.00001283      -0.00024337
Ca      10.76915715      15.77380186      15.65019625       0.00038639       0.00046836       0.00017806
Ca      11.84793647      18.04146822      12.70097141      -0.00047186      -0.00038112      -0.00031705
Ca      13.86464673      13.86464673      17.16762415      -0.00000000       0.00000000       0.00061033
Ca      13.86464673      15.51497132      13.86386655       0.00000000      -0.00043321       0.00067649
Ca      13.86464673      15.77485766      10.29147053      -0.00000000       0.00000547      -0.00040410
Ca      11.00310099      13.86464673      12.21183695      -0.00005334      -0.00000000      -0.00005620
Ca      13.86464673       9.69135555      16.19617579      -0.00000000       0.00001283      -0.00024337
Ca      11.84793647       9.68782524      12.70097141      -0.00047186       0.00038112      -0.00031705
Ca      10.76915715      11.95549160      15.65019625       0.00038639      -0.00046836       0.00017806
Ca      16.96013631      15.77380186      15.65019625      -0.00038639       0.00046836       0.00017806
Ca      15.88135699      18.04146822      12.70097141       0.00047186      -0.00038112      -0.00031705
Ca      13.86464673      12.21432215      13.86386655      -0.00000000       0.00043321       0.00067649
Ca      16.72619247      13.86464673      12.21183695       0.00005334      -0.00000000      -0.00005620
Ca      16.96013631      11.95549160      15.65019625      -0.00038639      -0.00046836       0.00017806
Ca      13.86464673      11.95443580      10.29147053      -0.00000000      -0.00000547      -0.00040410
Ca      15.88135699       9.68782524      12.70097141       0.00047186       0.00038112      -0.00031705
18
Lattice="28.80262973149684 0.0 0.0 0.0 28.80262973149684 0.0 0.0 0.0 28.80262973149684" Properties=species:S:1:pos:R:3:forces:R:3 config_type=qcd dft_energy=-22.29898559 gap_energy=-21.905460594629226 relaxed_gap_energy=-21.915178343503946 energy=-21.915178343503946 free_energy=-21.915178343503946 pbc="T T T"
Ca      14.40174702      14.37408185      16.55474386       0.00005771      -0.00013931       0.00071441
Ca      15.41291081      11.17830119      17.91326002      -0.00025752      -0.00075189       0.00030872
Ca      11.69152458      12.41270627      17.92967180      -0.00026323      -0.00035984      -0.00014493
Ca      11.71579300      16.33274717      17.97982419      -0.00041565       0.00040499       0.00011944
Ca      15.45194112      17.52145280      17.99470678       0.00030807       0.00028140       0.00004524
Ca      17.73727147      14.33530564      17.95375934       0.00017070       0.00015530      -0.00007144
Ca      13.35722537      11.25182441      14.68366224      -0.00005545       0.00012452       0.00050021
Ca      11.08713431      14.41798200      14.72492048      -0.00009903      -0.00002444      -0.00031857
Ca      13.39679781      17.55524587      14.76495186       0.00000124       0.00013139      -0.00025285
Ca      17.09470254      16.32839862      14.74869535       0.00007956      -0.00027253       0.00020662
Ca      17.07014896      12.43211634      14.69947334       0.00007381       0.00034516      -0.00091272
Ca      14.40052355      14.42033878      12.90587733       0.00066376      -0.00029011       0.00008625
Ca      14.40127713      14.46621174       9.33457000       0.00001257      -0.00008615       0.00055962
Ca      11.73184854      12.52650851      11.38210996      -0.00010720      -0.00002207      -0.00003642
Ca      15.39526623      11.30969466      11.36689780       0.00046270       0.00047681      -0.00013061
Ca      11.75666030      16.38655891      11.43184425      -0.00010686       0.00005055      -0.00004792
Ca      15.43580495      17.55583183      11.44757793      -0.00006327       0.00009767      -0.00050088
Ca      17.68508991      14.41836100      11.40712105      -0.00046191      -0.00012146      -0.00012417
19
Lattice="31.01627951066062 0.0 0.0 0.0 31.01627951066062 0.0 0.0 0.0 31.01627951066062" Properties=species:S:1:pos:R:3:forces:R:3 config_type=qcd dft_energy=-24.05225888 gap_energy=-23.73096867292341 relaxed_gap_energy=-23.754146957854488 energy=-23.754146957854488 free_energy=-23.754146957854488 pbc="T T T"
Ca      15.50596661      15.48956905      17.30003286       0.00049299      -0.00004405      -0.00054230
Ca      15.50403023      15.45221324      20.87062580      -0.00010801       0.00008281       0.00039500
Ca      16.50176580      12.34492515      18.77230255       0.00005553       0.00022661      -0.00025847
Ca      12.83679214      13.55962858      18.78240157       0.00028660      -0.00045845      -0.00003790
Ca      12.85937456      17.41972293      18.82321018       0.00013640      -0.00019796      -0.00043728
Ca      16.53833327      18.59081078      18.83730787      -0.00032666      -0.00000344      -0.00029068
Ca      18.78977520      15.45477120      18.80679366      -0.00064957       0.00000840      -0.00060121
Ca      14.45503266      12.33014188      15.47403802       0.00064854       0.00064321       0.00025869
Ca      12.16103666      15.52671880      15.50575115      -0.00025334       0.00014221      -0.00030279
Ca      14.49010073      18.69706815      15.54026435       0.00085299      -0.00018493       0.00044151
Ca      18.22713666      17.46003051      15.53030938      -0.00016652       0.00019734       0.00063817
Ca      18.20481917      13.52578913      15.48937892       0.00022054      -0.00007300       0.00063627
Ca      15.51040267      15.52677531      13.71664622      -0.00074096      -0.00004912      -0.00022925
Ca      15.51352279      15.56397846      10.14534103      -0.00023696       0.00004615       0.00026337
Ca      12.84413028      13.62637358      12.18978030       0.00013052       0.00047716       0.00007355
Ca      16.50959585      12.41416466      12.18055343      -0.00036597      -0.00017525      -0.00016565
Ca      12.86441467      17.48687341      12.22980129       0.00038681      -0.00040030       0.00019071
Ca      16.54247150      18.66004657      12.24581192       0.00007702      -0.00004433      -0.00020129
Ca      18.79595386      15.52505396      12.21430488      -0.00043997      -0.00019305       0.00016956
20
Lattice="24.10536908959169 0.0 0.0 0.0 24.10536908959169 0.0 0.0 0.0 24.10536908959169" Properties=species:S:1:pos:R:3:forces:R:3 config_type=qcd dft_energy=-25.60218564 gap_energy=-25.06959459648962 relaxed_gap_energy=-25.089225338346065 energy=-25.089225338346065 free_energy=-25.089225338346065 pbc="T T T"
Ca      11.97695471       8.59406491       7.76853870       0.00013032       0.00018757       0.00033418
Ca      12.43541967      12.51950988       7.68468218      -0.00007028       0.00007420      -0.00004040
Ca       9.39968380      14.50111943       9.20485999      -0.00040099      -0.00007085      -0.00015750
Ca      13.99492988      10.34198233      10.36377655      -0.00023520       0.00023689       0.00004083
Ca      12.77991035      16.30174711       8.88441379       0.00011914       0.00025774      -0.00011494
Ca      10.04555160      10.79616588      10.06656595       0.00033361       0.00012236      -0.00002915
Ca      15.58081486      13.79022974       9.67126647      -0.00017362       0.00006627      -0.00004143
Ca      12.29966230      13.64494515      11.19339392       0.00079115      -0.00056202       0.00016044
Ca      11.58540442       7.69180696      11.59743521       0.00007951      -0.00028832       0.00001791
Ca      14.45123956      16.24626946      12.42003723       0.00015550      -0.00008801      -0.00024253
Ca      10.63433111      16.68508771      12.13157236      -0.00015899       0.00031809       0.00028618
Ca      15.22082034      12.54283299      13.34550003      -0.00051283      -0.00006364      -0.00036973
Ca      14.68665940       8.70784815      13.78963265      -0.00001245      -0.00004773      -0.00002398
Ca      11.81429108      10.88135448      13.43289465       0.00026991       0.00019565       0.00013299
Ca       8.50559222       9.41860471      13.32487757      -0.00037396      -0.00004936      -0.00018094
Ca       8.92166462      13.26696627      12.87103295       0.00012482      -0.00023678      -0.00013360
Ca      12.10228919      14.35399397      14.90286273       0.00015997      -0.00003250       0.00012001
Ca      11.33196024       8.07235885      15.55402949       0.00004113      -0.00008950       0.00022113
Ca      13.55178936      11.12902621      16.56677132      -0.00011117      -0.00001847      -0.00004641
Ca       9.73472220      11.56777669      16.27954714      -0.00015559       0.00008840       0.00006694
21
Lattice="30.97387009050769 0.0 0.0 0.0 30.97387009050769 0.0 0.0 0.0 30.97387009050769" Properties=species:S:1:pos:R:3:forces:R:3 config_type=qcd dft_energy=-26.99968672 gap_energy=-26.39842073923623 relaxed_gap_energy=-26.417798980305164 energy=-26.417798980305164 free_energy=-26.417798980305164 pbc="T T T"
Ca      16.01405189      15.46132988      17.27979967       0.00022032       0.00011269       0.00076402
Ca      15.78895300      15.42558440      20.79288178       0.00009849       0.00009078      -0.00012169
Ca      16.92842883      12.31923616      18.77868064       0.00004780       0.00000045       0.00017371
Ca      13.18393472      13.46854332      18.60703771       0.00003489       0.00010221       0.00021261
Ca      13.23162529      17.49160438      18.65046447       0.00009166      -0.00008924       0.00021001
Ca      17.00155333      18.54772060      18.84695072       0.00018087       0.00004435      -0.00030134
Ca      19.22415550      15.40684693      18.83417276       0.00020027      -0.00003447      -0.00015477