3
Lattice="22.31683496670167 0.0 0.0 0.0 22.31683496670167 0.0 0.0 0.0 22.31683496670167" Properties=species:S:1:pos:R:3:forces:R:3 config_type=qcd dft_energy=-0.77817596 gap_energy=-0.7873335126505581 relaxed_gap_energy=-0.7877619159230662 energy=-0.7877619159230662 free_energy=-0.7877619159230662 pbc="T T T"
Cd      12.85581416      10.18518699      11.40542153       0.00059891      -0.00035973       0.00006936
Cd       9.94395344      10.66455627       9.68502053      -0.00037892      -0.00008999      -0.00038988
Cd      10.67548485      12.62550920      12.38481039      -0.00021999       0.00044972       0.00032052
4
Lattice="14.683583 0.0 0.0 0.0 14.683583 0.0 0.0 0.0 14.683583" Properties=species:S:1:pos:R:3:forces:R:3 config_type=qcd dft_energy=-1.32092735 gap_energy=-0.9836429475097684 relaxed_gap_energy=-1.139109001555671 energy=-1.139109001555671 free_energy=-1.139109001555671 pbc="T T T"
Cd       6.13174221       8.16930119       8.85905823       0.00030809       0.00005421       0.00010477
Cd       8.38475217       8.88623392       6.35292240      -0.00026941       0.00014388      -0.00009467
Cd       6.12693484       6.31413440       5.95637333       0.00044781      -0.00008547       0.00002464
Cd       8.72373679       5.99749649       8.19881204      -0.00048649      -0.00011263      -0.00003474
5
Lattice="17.350912 0.0 0.0 0.0 17.350912 0.0 0.0 0.0 17.350912" Properties=species:S:1:pos:R:3:forces:R:3 config_type=qcd dft_energy=-1.69179131 gap_energy=-1.4046690622162834 relaxed_gap_energy=-1.5211268530461388 energy=-1.5211268530461388 free_energy=-1.5211268530461388 pbc="T T T"
Cd       9.25617590       8.61034508      10.61154121      -0.00018484       0.00002048      -0.00097237
Cd       6.15281169       8.03046896       9.40822850       0.00005389      -0.00029128       0.00042593
Cd       8.76993835       7.00951738       7.53679773      -0.00029859      -0.00087798       0.00007087
Cd      11.19703572       9.31982772       7.93841170       0.00013194       0.00037105       0.00051362
Cd       8.00131834      10.40712086       7.88230087       0.00029760       0.00077773      -0.00003805
6
Lattice="19.78931737282935 0.0 0.0 0.0 19.78931737282935 0.0 0.0 0.0 19.78931737282935" Properties=species:S:1:pos:R:3:forces:R:3 config_type=qcd dft_energy=-2.06911605 gap_energy=-1.7680077490597825 relaxed_gap_energy=-1.8806117989979954 energy=-1.8806117989979954 free_energy=-1.8806117989979954 pbc="T T T"
Cd       8.47978732      10.96645405      10.27861842       0.00033311      -0.00004291       0.00051340
Cd      10.75460264      11.67602109       8.09077444      -0.00025792      -0.00049393      -0.00023022
Cd       8.58947222       8.93789132       7.76140971       0.00035243       0.00032971      -0.00012419
Cd      11.30856155       8.82197027       9.51000466      -0.00012196      -0.00003170      -0.00014470
Cd       9.03526791       8.11397408      11.70042921      -0.00015743      -0.00016492      -0.00012632
Cd      11.20026048      10.85164131      12.02671566      -0.00014823       0.00040375       0.00011203
6
Lattice="17.33466062175032 0.0 0.0 0.0 17.33466062175032 0.0 0.0 0.0 17.33466062175032" Properties=species:S:1:pos:R:3:forces:R:3 config_type=qcd dft_energy=-2.05976025 gap_energy=-1.7529529112959552 relaxed_gap_energy=-1.8806122458424768 energy=-1.8806122458424768 free_energy=-1.8806122458424768 pbc="T T T"
Cd       9.60962602      10.43886681       6.89393753      -0.00002314       0.00002397       0.00015730
Cd       7.72529008       6.89565423      10.44017553      -0.00010025      -0.00004456      -0.00007524
Cd       7.75674387      10.40074343      10.49391307      -0.00001142       0.00004615      -0.00009981
Cd      10.28173989       8.64018425       9.49804261       0.00012270       0.00019370       0.00002330
Cd       9.57777103       6.93378714       6.84139323      -0.00005240      -0.00019135      -0.00014658
Cd       7.05281098       8.69474601       7.83651989       0.00006452      -0.00002791       0.00014103
7
Lattice="19.78857384864959 0.0 0.0 0.0 19.78857384864959 0.0 0.0 0.0 19.78857384864959" Properties=species:S:1:pos:R:3:forces:R:3 config_type=qcd dft_energy=-2.54461595 gap_energy=-2.2752907370245623 relaxed_gap_energy=-2.3754538993952394 energy=-2.3754538993952394 free_energy=-2.3754538993952394 pbc="T T T"
Cd       7.56441554       9.73085587       9.20665001      -0.00002267      -0.00053553       0.00019915
Cd       9.23352139      12.14453170       7.71495054       0.00014749       0.00020014      -0.00042686
Cd       9.44204277       7.50267875       9.92679736      -0.00004893       0.00014341       0.00019057
Cd      12.49271888       8.27529307       8.95969701       0.00009725      -0.00019758       0.00046080
Cd       8.22781490      12.38037354      11.04404563       0.00005580      -0.00024594       0.00067636
Cd      10.79817790      10.72640074      10.11330069       0.00032975       0.00068410      -0.00051592
Cd      11.50131710       8.49987481      12.29456722      -0.00055868      -0.00004860      -0.00058411
7
Lattice="17.68372799551228 0.0 0.0 0.0 17.68372799551228 0.0 0.0 0.0 17.68372799551228" Properties=species:S:1:pos:R:3:forces:R:3 config_type=qcd dft_energy=-2.53851703 gap_energy=-2.080608791134921 relaxed_gap_energy=-2.375456377498651 energy=-2.375456377498651 free_energy=-2.375456377498651 pbc="T T T"
Cd       9.84800833       5.91390365       9.67252446      -0.00026294       0.00037668      -0.00048164
Cd      10.63698878       8.78029914      11.49247126       0.00006196       0.00028946       0.00085382
Cd      11.18809832       8.56693327       8.25568564       0.00015327      -0.00062213      -0.00019972
Cd       8.00012163       8.52133352       9.70754343       0.00027218       0.00039435      -0.00002897
Cd       9.07642393      10.09339675       6.76758209      -0.00008285       0.00059007       0.00007114
Cd       6.17402173       8.57716459       7.08722356      -0.00053424      -0.00065806      -0.00025791
Cd       6.96938526      11.44001707       8.91001754       0.00039262      -0.00037037       0.00004329
7
Lattice="17.53800575268492 0.0 0.0 0.0 17.53800575268492 0.0 0.0 0.0 17.53800575268492" Properties=species:S:1:pos:R:3:forces:R:3 config_type=qcd dft_energy=-2.53162712 gap_energy=-2.167586997189943 relaxed_gap_energy=-2.3219561065319 energy=-2.3219561065319 free_energy=-2.3219561065319 pbc="T T T"
Cd      11.41267828      10.60475088       8.86324442       0.00021900      -0.00002312       0.00016351
Cd      11.51061565       7.13953801       9.21283149      -0.00003594       0.00030331      -0.00021580
Cd      10.63492080       8.55805002       6.15335201       0.00007811      -0.00018214       0.00000993
Cd       6.02758705      10.39858608       8.32552731       0.00006486      -0.00017935      -0.00003199
Cd       8.76927602       8.76905035       8.76904266      -0.00073549      -0.00025933       0.00010494
Cd       6.12504422       6.93336798       8.67436688       0.00031415       0.00037705       0.00001646
Cd       6.90289811       8.97967681      11.38465536       0.00009531      -0.00003642      -0.00004705
8
Lattice="20.75532516341021 0.0 0.0 0.0 20.75532516341021 0.0 0.0 0.0 20.75532516341021" Properties=species:S:1:pos:R:3:forces:R:3 config_type=qcd dft_energy=-3.04002915 gap_energy=-2.7178283970705985 relaxed_gap_energy=-2.9013365579009838 energy=-2.9013365579009838 free_energy=-2.9013365579009838 pbc="T T T"
Cd      12.54590167       9.76622677       8.00859225      -0.00070270       0.00021432      -0.00019063
Cd      10.85861206      11.80228363       9.24405227       0.00075919      -0.00059010      -0.00020940
Cd       9.75069558       8.59869832       8.89665120       0.00018897      -0.00010034      -0.00037662
Cd       7.73926132      12.44464671       9.95221330       0.00013977      -0.00008229      -0.00024762
Cd      12.44915012       9.44413126      11.14338373      -0.00002354      -0.00005440      -0.00000214
Cd      10.37374681      13.27406538      12.11354239      -0.00025076       0.00030425       0.00052936
Cd      10.09146711       7.45427348      11.81534644       0.00027220       0.00003445       0.00005678
Cd       9.21246598      10.23697510      11.84751908      -0.00038313       0.00027411       0.00044027
8
Lattice="30.0 0.0 0.0 0.0 30.0 0.0 0.0 0.0 30.0" Properties=species:S:1:pos:R:3:forces:R:3 config_type=qcd dft_energy=-3.01298833 gap_energy=-2.754589554833168 relaxed_gap_energy=-2.8964913164728125 energy=-2.8964913164728125 free_energy=-2.8964913164728125 pbc="T T T"
Cd       8.53773429       7.38162251       5.48743929      -0.00028271       0.00047922       0.00004046
Cd       8.64770922       7.03340083       8.41334541       0.00063361       0.00017416       0.00032709
Cd       7.09436853       7.34809764      11.29043738      -0.00057613      -0.00000533      -0.00026053
Cd      10.54434275       6.83890756      11.08869370      -0.00023595       0.00051495       0.00000064
Cd       8.98697603       9.80543201       7.10616969       0.00020685      -0.00092156      -0.00007583
Cd       7.66854463      12.10322925       9.04691507       0.00013978      -0.00002566       0.00054864
Cd       9.15210292       9.64987437      10.46227081       0.00019575      -0.00054858      -0.00016146
Cd      11.11872136      11.58993598       8.85522865      -0.00008120       0.00033280      -0.00041900
8
Lattice="20.28693740036023 0.0 0.0 0.0 20.28693740036023 0.0 0.0 0.0 20.28693740036023" Properties=species:S:1:pos:R:3:forces:R:3 config_type=qcd dft_energy=-3.00104159 gap_energy=-2.6786862432065073 relaxed_gap_energy=-2.9013253035968285 energy=-2.9013253035968285 free_energy=-2.9013253035968285 pbc="T T T"
Cd       8.69840227      12.43220410      12.16574775      -0.00017558      -0.00011465      -0.00049084
Cd      10.51237227      11.49052546       8.19363466       0.00010213       0.00092442      -0.00025761
Cd       9.20778827       9.12943324      13.22866243       0.00056254      -0.00048625       0.00014062
Cd      11.07706119       8.09966384       9.29913552      -0.00032653      -0.00033592       0.00041092
Cd      11.38834792      10.74587460      11.41753945       0.00014401       0.00070961       0.00022155
Cd       8.28256190       9.86805697      10.18988437      -0.00000046      -0.00037352      -0.00054002
Cd       8.70819224       9.01370636       7.43172375      -0.00021682       0.00023422       0.00031746
Cd      13.27302353      10.36828502       9.22142167      -0.00008930      -0.00055789       0.00019791
9
Lattice="17.152077 0.0 0.0 0.0 17.152077 0.0 0.0 0.0 17.152077" Properties=species:S:1:pos:R:3:forces:R:3 config_type=qcd dft_energy=-3.72204634 gap_energy=-3.454496809073648 relaxed_gap_energy=-3.5077064091815675 energy=-3.5077064091815675 free_energy=-3.5077064091815675 pbc="T T T"
Cd       7.99655231       6.13672536       8.01032144       0.00027743      -0.00044378       0.00011460
Cd       6.11100708       8.71315111       7.84535310       0.00013799      -0.00002207       0.00028022
Cd      10.94016667       7.11718827       7.70000184      -0.00015338      -0.00020714      -0.00004839
Cd       9.92510458       7.70767647      10.58826932      -0.00032171      -0.00013072      -0.00048283
Cd       8.72900858       8.51775888       6.00667668      -0.00011771       0.00012954      -0.00011957
Cd       8.03612857      10.28954468      10.42271833       0.00005671      -0.00023335      -0.00015405
Cd       6.81946079       7.42434705      10.59375258       0.00015454       0.00032767       0.00014259
Cd      10.65769855      10.09308665       8.58118954      -0.00025252       0.00040724       0.00058339
Cd       7.96921938      11.18486803       7.43606368       0.00021866       0.00017262      -0.00031595
9
Lattice="24.74205437164143 0.0 0.0 0.0 24.74205437164143 0.0 0.0 0.0 24.74205437164143" Properties=species:S:1:pos:R:3:forces:R:3 config_type=qcd dft_energy=-3.70083011 gap_energy=-3.4515940290293106 relaxed_gap_energy=-3.5221166241188815 energy=-3.5221166241188815 free_energy=-3.5221166241188815 pbc="T T T"
Cd      12.77389460       9.78335444      11.69312030      -0.00021822      -0.00057949      -0.00070986
Cd      13.60660909      12.04699220       9.69473519       0.00004844      -0.00019643      -0.00009950
Cd      13.33862027      10.78337023      14.58015904       0.00040909       0.00015229       0.00001840
Cd      10.37173594      11.30976066      13.75725581      -0.00053385      -0.00009172       0.00009071
Cd      14.78619763      12.61076596      12.52676236      -0.00008051       0.00037323       0.00044822
Cd      10.22259637      14.26789603      12.71868250       0.00012448       0.00034491       0.00003338
Cd      10.65491451      11.94819666      10.70037209      -0.00007064      -0.00060523      -0.00000152
Cd      12.73010677      13.86282415      14.53713838       0.00017859       0.00023992       0.00005378
Cd      12.85456950      14.72608432      11.13101901       0.00014263       0.00036252       0.00016639
10
Lattice="17.719199 0.0 0.0 0.0 17.719199 0.0 0.0 0.0 17.719199" Properties=species:S:1:pos:R:3:forces:R:3 config_type=qcd dft_energy=-4.35197277 gap_energy=-3.9730820597068215 relaxed_gap_energy=-4.072715762759141 energy=-4.072715762759141 free_energy=-4.072715762759141 pbc="T T T"
Cd       7.96066547       7.29945533       6.87398392       0.00029909       0.00032963      -0.00031839
Cd      10.92803231       8.85959950      10.10881699      -0.00047651      -0.00000000      -0.00069089
Cd       7.96066547      10.41974367       6.87398392       0.00029909      -0.00032963      -0.00031839
Cd      10.40273742       6.19741601       8.46840797      -0.00075164       0.00012012      -0.00012258
Cd      10.40273742      11.52178299       8.46840797      -0.00075164      -0.00012012      -0.00012258
Cd       7.82590280      10.65020171      10.09970871       0.00032273       0.00077565       0.00027597
Cd      10.65543490       8.85959950       6.86225067       0.00089054      -0.00000000       0.00039049
Cd       5.77972069       8.85959950       8.46828323      -0.00043518       0.00000000      -0.00002046
Cd       7.82590280       7.06899729      10.09970871       0.00032273      -0.00077565       0.00027597
Cd       8.85419572       8.85959950      12.27244291       0.00028077      -0.00000000       0.00065085
10
Lattice="20.53583672731798 0.0 0.0 0.0 20.53583672731798 0.0 0.0 0.0 20.53583672731798" Properties=species:S:1:pos:R:3:forces:R:3 config_type=qcd dft_energy=-4.35108997 gap_energy=-4.062360788451154 relaxed_gap_energy=-4.148622645915675 energy=-4.148622645915675 free_energy=-4.148622645915675 pbc="T T T"
Cd      10.49468419       8.82618493       6.81592860      -0.00078335       0.00027254      -0.00026647
Cd      10.77785488      11.42270935       8.29038355       0.00018957       0.00036416       0.00055861
Cd       8.50739901       9.61856123       8.93346821      -0.00000190       0.00021773      -0.00039478
Cd      11.75998885       8.54753394       9.70010707      -0.00008074      -0.00004626       0.00024849
Cd      10.95718798      13.95107952      10.18124397       0.00035225      -0.00069105      -0.00010852
Cd       9.03589858      11.92035157      11.29540958       0.00046153      -0.00031815      -0.00075041
Cd      11.96006045      11.41096120      11.42304170      -0.00029023       0.00078553      -0.00003898
Cd       9.76106594       8.71631656      11.89225138      -0.00067337      -0.00007831       0.00022540
Cd       6.73267440       9.71654739      11.59693230       0.00012329      -0.00052565       0.00001276
Cd      12.69236939       8.54893796      12.55041728       0.00070294       0.00001945       0.00051390
11
Lattice="23.31563584665661 0.0 0.0 0.0 23.31563584665661 0.0 0.0 0.0 23.31563584665661" Properties=species:S:1:pos:R:3:forces:R:3 config_type=qcd dft_energy=-4.79753198 gap_energy=-4.465590620298503 relaxed_gap_energy=-4.696808054990644 energy=-4.696808054990644 free_energy=-4.696808054990644 pbc="T T T"
Cd      11.57104554      11.51197076      14.85085506      -0.00002042       0.00000150       0.00021333
Cd      13.05577652      13.43256022      12.88015254      -0.00008956       0.00024637      -0.00003116
Cd      10.90142129      15.25055199      11.83358672       0.00014890       0.00000870       0.00000973
Cd       9.55011913      12.74844065      12.81022848      -0.00002880       0.00010771       0.00000622
Cd      10.15714937       9.64181957      12.78200600       0.00004465      -0.00025191       0.00001738
Cd       9.05784547      11.06310167      10.22295207       0.00002629      -0.00005306      -0.00006444
Cd      11.35722531      13.12940166       9.75202893      -0.00000926      -0.00011133       0.00000724
Cd      14.24462482      12.07502471      10.32657793      -0.00001001       0.00004860      -0.00009756
Cd      13.66282715      10.32588163      12.85217085      -0.00001311      -0.00010364      -0.00006594
Cd      11.96409211      10.02212220       9.72392908       0.00008677       0.00009502       0.00003186
Cd      12.34766610       7.84951184      11.76666749      -0.00013543       0.00001203      -0.00002666
11
Lattice="20.75440443705628 0.0 0.0 0.0 20.75440443705628 0.0 0.0 0.0 20.75440443705628" Properties=species:S:1:pos:R:3:forces:R:3 config_type=qcd dft_energy=-4.78831271 gap_energy=-4.404136476344295 relaxed_gap_energy=-4.598675511027555 energy=-4.598675511027555 free_energy=-4.598675511027555 pbc="T T T"
Cd      12.72470111      12.11298154      12.97177096      -0.00038829      -0.00021271       0.00010679
Cd       8.11062695      11.27130813       9.56260048      -0.00011983      -0.00000701       0.00013835
Cd      10.48848987      12.95405888       8.58644459       0.00025159       0.00041253       0.00074312
Cd      12.92839807      11.57491595       9.94785015      -0.00006378      -0.00036361      -0.00036840
Cd      12.74210076       8.49239952       9.53840822       0.00002613      -0.00033493      -0.00047357
Cd       9.82857136       7.86910967      10.28479860       0.00002656       0.00007369       0.00051724
Cd      10.51515525       9.93147835       7.95196016       0.00002826      -0.00027349       0.00009557
Cd      11.50492286       9.34144277      12.31410639       0.00032520       0.00053562      -0.00013622
Cd       9.93909737      12.44260676      11.65399838      -0.00013296       0.00042171      -0.00046192
Cd       8.39320322       9.79101859      12.33084086      -0.00015431      -0.00021436       0.00012023
Cd       6.97395759       8.36790425       9.00644560       0.00020144      -0.00003744      -0.00028120
11
Lattice="17.87563683849719 0.0 0.0 0.0 17.87563683849719 0.0 0.0 0.0 17.87563683849719" Properties=species:S:1:pos:R:3:forces:R:3 config_type=qcd dft_energy=-4.75091407 gap_energy=-4.383647994627882 relaxed_gap_energy=-4.552639621370265 energy=-4.552639621370265 free_energy=-4.552639621370265 pbc="T T T"
Cd       5.85312763       6.24882335       8.94084598      -0.00055550      -0.00002476      -0.00075457
Cd       8.95915685       6.75291542       8.94843357       0.00061346      -0.00013554      -0.00037780
Cd      12.01992237       7.06552969       8.96495917      -0.00067999      -0.00062763      -0.00017804
Cd       7.91042081       8.25004895       6.37084966       0.00066671      -0.00027403       0.00052303
Cd      10.81972972       9.13532368       7.15425503      -0.00023213       0.00016574       0.00050524
Cd       8.34341525      11.15572706       7.39144807      -0.00056408      -0.00026309      -0.00001284
Cd       7.87967706       8.27504217      11.49703132       0.00026897       0.00033579       0.00017374
Cd      10.79695176       9.15387657      10.73945681       0.00086249       0.00021176       0.00006745
Cd       8.32534508      11.17105618      10.45411418      -0.00007497       0.00025722      -0.00029083
Cd       6.40908327       9.35158582       8.91948683      -0.00005943       0.00015367       0.00028983
Cd      10.99917279      11.75607372       8.93512199      -0.00024552       0.00020087       0.00005477
12
Lattice="30.0 0.0 0.0 0.0 30.0 0.0 0.0 0.0 30.0" Properties=species:S:1:pos:R:3:forces:R:3 config_type=qcd dft_energy=-5.24497643 gap_energy=-4.907411894733582 relaxed_gap_energy=-5.050038231787622 energy=-5.050038231787622 free_energy=-5.050038231787622 pbc="T T T"
Cd       7.59120490      10.13283550       8.39518092       0.00025197       0.00049488       0.00038205
Cd       7.49650567      12.74552028      12.37380524      -0.00044667      -0.00043878       0.00018443
Cd       9.95035261       8.42928296       7.66920061      -0.00021031      -0.00045887       0.00060750
Cd       8.60692070       8.99191678      10.92616820       0.00043628       0.00024644       0.00015122
Cd       9.99886872      11.71917696       9.00761701      -0.00039229      -0.00047699      -0.00057327
Cd      12.45130125      10.34683431       7.49659118       0.00000836       0.00003004      -0.00045696
Cd      10.29272148      11.39691600      12.22990397       0.00035993      -0.00023821       0.00020521
Cd      13.02605548       7.91156101       9.28764906       0.00000347      -0.00009001      -0.00051288
Cd      10.39313681       6.50864238      10.13260439       0.00013102       0.00042389       0.00017749
Cd       5.77318204      11.92343387       9.90712669       0.00014111       0.00037490      -0.00062619
Cd      11.62823707       8.72427133      12.02043185      -0.00017734      -0.00014849      -0.00036689
Cd      12.77924923      11.15734457      10.54145692      -0.00010553       0.00028120       0.00082828
12
Lattice="22.92385928172191 0.0 0.0 0.0 22.92385928172191 0.0 0.0 0.0 22.92385928172191" Properties=species:S:1:pos:R:3:forces:R:3 config_type=qcd dft_energy=-5.19822876 gap_energy=-4.95730893232695 relaxed_gap_energy=-5.143714316413036 energy=-5.143714316413036 free_energy=-5.143714316413036 pbc="T T T"
Cd      11.86449924      11.90089732       7.03176943      -0.00008634      -0.00081565       0.00015897
Cd      10.75705791       9.23043818       8.20229890      -0.00018320       0.00021781      -0.00007702
Cd       9.66177066       9.60110635      10.93491076      -0.00060034       0.00030410      -0.00067714
Cd      12.41915519      10.67121496      10.24454573       0.00021683       0.00041091       0.00061754
Cd      11.97777405      13.77797898       9.42804607       0.00026137      -0.00033334       0.00055527
Cd       9.66984552      12.83445129      11.07583737       0.00040259      -0.00007038      -0.00020550
Cd      13.03154019      13.36026804      12.14390919      -0.00009768       0.00022587      -0.00046731
Cd      14.35982416      10.46729036      12.70450899      -0.00029595       0.00012137      -0.00019697
Cd       9.22520181      11.00858007      13.62697316       0.00010668       0.00001482       0.00005839
Cd      11.63941055       9.12980869      13.30755313       0.00045531       0.00010371      -0.00032169
Cd      10.45494782      13.85910033      13.99170839      -0.00057734      -0.00017658       0.00038830
Cd      12.48212857      11.70202114      14.85109456       0.00039807      -0.00000263       0.00016716
13
Lattice="20.447625 0.0 0.0 0.0 20.447625 0.0 0.0 0.0 20.447625" Properties=species:S:1:pos:R:3:forces:R:3 config_type=qcd dft_energy=-5.8087266 gap_energy=-5.461235026661347 relaxed_gap_energy=-5.677426382454618 energy=-5.677426382454618 free_energy=-5.677426382454618 pbc="T T T"
Cd       7.85081306       9.53661364       8.41905267       0.00027464       0.00013719       0.00002007
Cd       8.00651115      14.34420563      10.44449562       0.00015420       0.00052264       0.00011445
Cd      10.64132916       8.95086493       7.51861484      -0.00041499       0.00030343       0.00063917
Cd       9.37224596       8.67880882      10.79270717      -0.00000634      -0.00031803       0.00020698
Cd       9.84569140      11.79046276       9.63820037       0.00015404      -0.00004157      -0.00000910
Cd      12.37885149      11.43242067       8.16043543      -0.00008794      -0.00044092      -0.00023624
Cd      10.39322544      10.16785382      13.40849993       0.00024850       0.00024948       0.00027944
Cd      13.69238383       8.83475864       9.25153223      -0.00020920      -0.00016778      -0.00033375
Cd      11.52473116       6.64491046       9.49839687       0.00004174       0.00023187      -0.00058839
Cd       6.37745287      11.62906779       9.87945840       0.00039879      -0.00011134      -0.00050885
Cd      12.23214009       8.01756262      12.22784216       0.00021618       0.00044420       0.00044404
Cd       8.19771557      11.85151061      12.53631083      -0.00043927      -0.00072549      -0.00011818
Cd      12.39647132      11.03052213      11.13401598      -0.00033034      -0.00008369       0.00009037
13
Lattice="19.67205124588876 0.0 0.0 0.0 19.67205124588876 0.0 0.0 0.0 19.67205124588876" Properties=species:S:1:pos:R:3:forces:R:3 config_type=qcd dft_energy=-5.78046597 gap_energy=-5.58614305221713 relaxed_gap_energy=-5.976611823156324 energy=-5.976611823156324 free_energy=-5.976611823156324 pbc="T T T"
Cd      11.79749952       9.87656766      11.93237828      -0.00003872       0.00020391       0.00014307
Cd      12.37264364       9.19452578       8.65361509       0.00002149       0.00028716      -0.00024061
Cd      10.21403071      12.39422563      12.39125738      -0.00001486      -0.00007420       0.00024726
Cd      13.54581968       7.41253652      10.99091559       0.00008604      -0.00003137       0.00004759
Cd       8.88108543       9.74834848      11.70025387       0.00010658      -0.00006047      -0.00008765
Cd      10.88719541      10.58736982       6.43762145       0.00004636       0.00012994       0.00019632
Cd      10.83636170      11.60109275       9.30554402      -0.00010563      -0.00045224      -0.00031376
Cd      10.43315808       7.10880900      10.50834975      -0.00008430      -0.00002071       0.00005321
Cd       9.16624129       8.56693673       8.30727034      -0.00046656       0.00031374       0.00014613
Cd       7.42732277       7.16642589      10.37331149      -0.00000637       0.00008051       0.00008059
Cd       8.02072354      11.51970211       7.45479830       0.00018909      -0.00008010      -0.00006781
Cd       7.86685331      12.62065198      10.25605414       0.00012041      -0.00025041      -0.00014712
Cd       6.41939802      10.07114076       9.55696343       0.00014645      -0.00004575      -0.00005721
14
Lattice="20.47092 0.0 0.0 0.0 20.47092 0.0 0.0 0.0 20.47092" Properties=species:S:1:pos:R:3:forces:R:3 config_type=qcd dft_energy=-6.38153309 gap_energy=-6.045205241804026 relaxed_gap_energy=-6.357091215722675 energy=-6.357091215722675 free_energy=-6.357091215722675 pbc="T T T"
Cd      10.33345887      12.89978135      12.23651504      -0.00013718       0.00041763       0.00022063
Cd       9.18867473       8.77168600       5.50016947      -0.00018197       0.00010114      -0.00076492
Cd      10.87544668       9.13416793       8.53498118       0.00037902      -0.00042524       0.00014720
Cd       7.70409679      10.62401663       7.82135154      -0.00018509      -0.00011027      -0.00006853
Cd      10.57827941      11.42346627       6.52207361       0.00013648       0.00022350      -0.00048743
Cd       8.32833856       7.45789926       8.24569466      -0.00023115      -0.00016869       0.00001673
Cd       8.90748966      10.44024408      13.30797580      -0.00047412       0.00025477      -0.00008508
Cd       9.04282427       8.20595805      10.96982694      -0.00016714       0.00031186      -0.00016489
Cd      10.90903319       8.00812810      13.56755408       0.00029402       0.00036408       0.00018174
Cd       8.37536517      11.43009691      10.55540811       0.00002069      -0.00052199       0.00053939
Cd      11.31325843      12.21128144       9.22980975       0.00012864       0.00012606       0.00010920
Cd      12.10838673      10.84323651      14.04191850       0.00036125      -0.00029757       0.00027878
Cd      12.23966564       9.47499454      11.10045081       0.00004099      -0.00064868       0.00013046
Cd      13.39212186      12.37148292      11.66271052       0.00001554       0.00037340      -0.00005328
14
Lattice="19.74409698646006 0.0 0.0 0.0 19.74409698646006 0.0 0.0 0.0 19.74409698646006" Properties=species:S:1:pos:R:3:forces:R:3 config_type=qcd dft_energy=-6.37843679 gap_energy=-6.057320268905953 relaxed_gap_energy=-6.2917620641700145 energy=-6.2917620641700145 free_energy=-6.2917620641700145 pbc="T T T"
Cd       8.68397497      10.58102752       5.88998756      -0.00026492      -0.00091321      -0.00001349
Cd       6.70846089       9.21477096       7.83737613       0.00035067       0.00000399      -0.00024607
Cd       9.08044956       7.58107190       6.79582441       0.00009439       0.00079657       0.00012877
Cd       7.09096868      10.84132746      10.26563909       0.00003192      -0.00012230      -0.00079196
Cd      10.00637809      12.87680603       7.36145834      -0.00053910       0.00071957       0.00036365
Cd      10.95009424       9.85857180       8.20031766       0.00041134       0.00047065       0.00032829
Cd      12.62884632      10.96118330      10.39326917      -0.00031504      -0.00038157       0.00030400
Cd      11.89075796       8.08613766      10.34004064      -0.00016833      -0.00084467       0.00036702
Cd       9.70184450      12.33178599      10.34706775      -0.00053865       0.00044815      -0.00054992
Cd      11.45939399      12.11856695      13.03047307       0.00066365      -0.00034132      -0.00049674
Cd       8.66747674       7.84337828       9.74719549       0.00025993      -0.00007088       0.00031487
Cd      10.07431057       6.85353574      12.47158609      -0.00047610       0.00039496      -0.00027366
Cd      12.07199509       9.10350420      13.34220443       0.00092215      -0.00007843      -0.00003711