3
Lattice="22.18920064227288 0.0 0.0 0.0 22.18920064227288 0.0 0.0 0.0 22.18920064227288" Properties=species:S:1:pos:R:3:forces:R:3 config_type=qcd dft_energy=-11.1897214 gap_energy=-11.84397741785848 relaxed_gap_energy=-12.034646538914355 energy=-12.034646538914355 free_energy=-12.034646538914355 pbc="T T T"
Co      12.29116028      10.94319773      11.42253346      -0.00062606      -0.00005306      -0.00005664
Co      10.77942072      11.98140933      10.27231999       0.00021653       0.00016938      -0.00011164
Co      10.21321995      10.35919390      11.58894752       0.00040952      -0.00011632       0.00016828
4
Lattice="21.94674458123856 0.0 0.0 0.0 21.94674458123856 0.0 0.0 0.0 21.94674458123856" Properties=species:S:1:pos:R:3:forces:R:3 config_type=qcd dft_energy=-16.78129923 gap_energy=-17.242750455807105 relaxed_gap_energy=-17.447320693743954 energy=-17.447320693743954 free_energy=-17.447320693743954 pbc="T T T"
Co      10.19897767      11.56250391      11.95327881       0.00030547      -0.00006870      -0.00026989
Co      11.70138423      11.94511988      10.31570022      -0.00002419       0.00016648       0.00022075
Co      10.15645465      10.32096026      10.07133740      -0.00039392      -0.00013161      -0.00019268
Co      11.83667261      10.06490511      11.55317274       0.00011264       0.00003383       0.00024182
5
Lattice="22.3302867892375 0.0 0.0 0.0 22.3302867892375 0.0 0.0 0.0 22.3302867892375" Properties=species:S:1:pos:R:3:forces:R:3 config_type=qcd dft_energy=-22.42034281 gap_energy=-22.930549588958186 relaxed_gap_energy=-22.94814087165628 energy=-22.94814087165628 free_energy=-22.94814087165628 pbc="T T T"
Co       9.93329956      11.89226733      10.79816388      -0.00016810       0.00029041      -0.00020230
Co      10.29743482      10.16800736      12.09251797      -0.00013040      -0.00021992       0.00018803
Co      11.94794072      11.58132666      12.34322176       0.00021410       0.00005186       0.00012253
Co      12.02895249      12.16463664      10.23663746      -0.00008358       0.00000648       0.00000395
Co      11.61808938      10.01947898      10.35517590       0.00016797      -0.00012883      -0.00011220
6
Lattice="15.040079 0.0 0.0 0.0 15.040079 0.0 0.0 0.0 15.040079" Properties=species:S:1:pos:R:3:forces:R:3 config_type=qcd dft_energy=-29.11664027 gap_energy=-29.030472806891076 relaxed_gap_energy=-29.03166618743557 energy=-29.03166618743557 free_energy=-29.03166618743557 pbc="T T T"
Co       7.40904909       8.02611181       9.03373880       0.00037011      -0.00027440      -0.00073437
Co       8.03755357       8.96679257       7.07431649      -0.00044034      -0.00046372       0.00000719
Co       6.01019055       7.97870322       7.25606275       0.00069958      -0.00025693       0.00026717
Co       7.00274041       6.07325021       7.96588795      -0.00013816       0.00053713      -0.00031904
Co       9.02990907       7.06138785       7.78391483      -0.00073842       0.00023822       0.00000569
Co       7.63079430       7.01399134       6.00631620       0.00024723       0.00021970       0.00077336
7
Lattice="30.0 0.0 0.0 0.0 30.0 0.0 0.0 0.0 30.0" Properties=species:S:1:pos:R:3:forces:R:3 config_type=qcd dft_energy=-34.23576304 gap_energy=-34.11318601793175 relaxed_gap_energy=-34.14378141135148 energy=-34.14378141135148 free_energy=-34.14378141135148 pbc="T T T"
Co      10.92685430       8.16929658      10.61658742       0.00010216      -0.00008386       0.00006368
Co      10.18545215       8.47400241       8.51258098      -0.00018261       0.00024216      -0.00005058
Co       9.44348383      10.55391815       7.94379239      -0.00005440      -0.00029925       0.00029040
Co       8.71558827       8.49116240      10.34091479      -0.00008793       0.00027816      -0.00028061
Co      10.25069558      10.24174564      10.05348639      -0.00016503       0.00003049      -0.00009631
Co       7.95659852       8.85835223       8.22216125       0.00015260       0.00003090       0.00015295
Co       8.01977437      10.57051672       9.71471272       0.00023520      -0.00019861      -0.00007953
8
Lattice="18.064674 0.0 0.0 0.0 18.064674 0.0 0.0 0.0 18.064674" Properties=species:S:1:pos:R:3:forces:R:3 config_type=qcd dft_energy=-39.95309364 gap_energy=-39.75814915936017 relaxed_gap_energy=-39.77946764856917 energy=-39.77946764856917 free_energy=-39.77946764856917 pbc="T T T"
Co      10.31827788      10.75135172       9.01079364      -0.00064497      -0.00008399       0.00035017
Co      11.04762137       8.75004295       9.71656869      -0.00027551      -0.00014898      -0.00043192
Co       7.06197980       8.56549264       9.74700499      -0.00012856       0.00026874      -0.00057055
Co       9.02423579       9.54350027      10.49134656       0.00028879       0.00002689      -0.00043717
Co       8.14055195      10.16844100       8.48621746       0.00052816      -0.00026075       0.00024633
Co       9.86533068       8.88026387       7.73897137       0.00028836       0.00024272       0.00009839
Co       9.09967973       7.53747598       9.41298499       0.00003597       0.00015189       0.00003992
Co       7.70101877       8.06212757       7.65480813      -0.00009224      -0.00019652       0.00070483
9
Lattice="16.91036 0.0 0.0 0.0 16.91036 0.0 0.0 0.0 16.91036" Properties=species:S:1:pos:R:3:forces:R:3 config_type=qcd dft_energy=-45.55352648 gap_energy=-45.18625242291579 relaxed_gap_energy=-45.246116030299156 energy=-45.246116030299156 free_energy=-45.246116030299156 pbc="T T T"
Co       6.84019439       8.95511795       8.92642110      -0.00002667       0.00054352       0.00029310
Co       8.72103616      10.18866764       8.39811852       0.00031231       0.00055917       0.00018335
Co      10.04542288       8.51183060       9.19613296      -0.00032235       0.00029682      -0.00031269
Co       8.16454133       7.27824334       9.72412059      -0.00028409      -0.00001588       0.00034508
Co       8.41224356       9.41728519      10.54892515      -0.00001826      -0.00046199      -0.00026038
Co      10.10144690       9.03971388       6.95214169      -0.00056494       0.00023890       0.00000579
Co       9.14198889       7.06008397       7.64209249       0.00045179      -0.00063592      -0.00022684
Co       7.81773923       8.73704850       6.84421568       0.00072629      -0.00007282      -0.00008385
Co       6.85200684       6.90862912       7.86445213      -0.00027407      -0.00045181       0.00005646
10
Lattice="17.863621 0.0 0.0 0.0 17.863621 0.0 0.0 0.0 17.863621" Properties=species:S:1:pos:R:3:forces:R:3 config_type=qcd dft_energy=-51.12815006 gap_energy=-51.07338027654466 relaxed_gap_energy=-51.10322730680723 energy=-51.10322730680723 free_energy=-51.10322730680723 pbc="T T T"
Co      11.31454964       8.88293406       9.95102132      -0.00001531      -0.00038971      -0.00018412
Co      10.95575876      10.42688377       8.31007315       0.00040500      -0.00001488      -0.00044255
Co      10.54278052       8.21602988       7.90626424      -0.00025731       0.00042056       0.00050837
Co       9.62157567      10.40246808      10.16484435      -0.00039911       0.00031412       0.00042802
Co       9.11152293       8.15814423       9.75408030       0.00014682       0.00057120      -0.00050284
Co       7.32083894       9.64759738       9.95734984       0.00025523      -0.00041930      -0.00050808
Co       8.75210034       9.70546480       8.10955358      -0.00014577      -0.00055742       0.00048872
Co       8.24205277       7.46112173       7.69881005       0.00039094      -0.00028565      -0.00046040
Co       6.54909650       8.98069448       7.91256309      -0.00000498       0.00037352       0.00022170
Co       6.90782876       7.43676624       9.55354526      -0.00037552      -0.00001245       0.00045118
11
Lattice="19.75659603882731 0.0 0.0 0.0 19.75659603882731 0.0 0.0 0.0 19.75659603882731" Properties=species:S:1:pos:R:3:forces:R:3 config_type=qcd dft_energy=-56.51160148 gap_energy=-56.62926045147877 relaxed_gap_energy=-56.73430971027017 energy=-56.73430971027017 free_energy=-56.73430971027017 pbc="T T T"
Co      11.61821179      11.21643144      11.14256331      -0.00027007      -0.00015927      -0.00018262
Co       8.96890348      10.68516197       9.29009713      -0.00009432       0.00013475      -0.00003091
Co      10.29756586      12.52689581       9.83780294       0.00038092       0.00035279      -0.00040033
Co      11.33907042      10.66233029       8.94437674       0.00011724      -0.00002420       0.00043138
Co      11.80412351       8.44527135       9.43612957      -0.00031417       0.00038453      -0.00003775
Co       9.32034595       7.52134692       9.93775021       0.00005678      -0.00006952       0.00015665
Co       9.95747488       8.84644737       8.20598204       0.00029027      -0.00019850      -0.00015999
Co      10.28852263       9.42858705      10.70256203       0.00056556      -0.00008201      -0.00025743
Co       9.31223305      11.34823684      11.50437814       0.00019995       0.00027529       0.00054784
Co       8.01738449       9.26073159      10.90822212      -0.00061649      -0.00048250       0.00011013
Co       7.73744215       8.71983758       8.75141397      -0.00031567      -0.00013137      -0.00017696
11
Lattice="17.96591 0.0 0.0 0.0 17.96591 0.0 0.0 0.0 17.96591" Properties=species:S:1:pos:R:3:forces:R:3 config_type=qcd dft_energy=-56.50188351 gap_energy=-56.24011292123325 relaxed_gap_energy=-56.278422561930455 energy=-56.278422561930455 free_energy=-56.278422561930455 pbc="T T T"
Co       7.83194129       8.84778894      10.28141287       0.00034351       0.00004647       0.00004854
Co       7.83466941       8.84272104       7.68260805       0.00031684       0.00005993      -0.00003562
Co       6.97072198      10.58602131       8.97769431      -0.00012491      -0.00004829       0.00000185
Co       9.51935634       7.84879044       8.98572621       0.00001131       0.00037215      -0.00000116
Co       9.23635336      10.21157504       8.98082279       0.00015205      -0.00024412       0.00002138
Co       5.89372774       8.61314429       8.98048134       0.00014952      -0.00012153      -0.00002822
Co       7.40606053       6.95018000       8.98522979      -0.00025646       0.00003389       0.00001139
Co      10.42996878       9.15961248      10.62778926      -0.00038936      -0.00008899      -0.00042428
Co      10.43342556       9.15321504       7.34049142      -0.00037384      -0.00007446       0.00043024
Co      11.76076524       8.19250439       8.98740602      -0.00002381       0.00057358       0.00000773
Co      11.49551477      10.40695201       8.98284294       0.00019515      -0.00050863      -0.00003184
11
Lattice="30.0 0.0 0.0 0.0 30.0 0.0 0.0 0.0 30.0" Properties=species:S:1:pos:R:3:forces:R:3 config_type=qcd dft_energy=-56.49534567 gap_energy=-56.557860146644316 relaxed_gap_energy=-56.657063447771705 energy=-56.657063447771705 free_energy=-56.657063447771705 pbc="T T T"
Co       7.17970530       8.07921232       7.51749666      -0.00005779       0.00006836      -0.00021912
Co       9.42057327       8.67911140       7.91710244      -0.00009889       0.00001573       0.00004314
Co       9.12599758       8.23838754      10.22718349       0.00020694      -0.00008475       0.00005243
Co       8.02198855      10.15202274       6.80030252       0.00001352      -0.00001499       0.00002724
Co      10.96042247       9.50460101       9.49459462       0.00027287      -0.00011732       0.00003674
Co      10.82118238       7.20555003       9.03044861      -0.00004945       0.00003151       0.00004460
Co       8.58540772       6.59951343       8.63756162       0.00016963      -0.00007330      -0.00009317
Co       9.19986431      10.50693720      10.60891740      -0.00006164       0.00005756       0.00024945
Co       7.66042729       9.78105072       9.05953561       0.00001624       0.00029259      -0.00028867
Co       9.55470778      10.98430318       8.37461433      -0.00008322       0.00007909      -0.00020375
Co       6.92567543       7.72526244       9.78819487      -0.00032822      -0.00025446       0.00035110
12
Lattice="17.726378 0.0 0.0 0.0 17.726378 0.0 0.0 0.0 17.726378" Properties=species:S:1:pos:R:3:forces:R:3 config_type=qcd dft_energy=-62.34420896 gap_energy=-62.47144404248256 relaxed_gap_energy=-62.50817831562823 energy=-62.50817831562823 free_energy=-62.50817831562823 pbc="T T T"
Co       8.22059997      11.37267533       9.22589827       0.00001220      -0.00037718      -0.00001691
Co       8.17180351       6.67003766       9.25855552       0.00012729      -0.00025733       0.00029652
Co       8.17029168       9.02863502       9.32729352       0.00004665       0.00072508      -0.00008895
Co      10.06282547       7.86090289       8.60135397      -0.00019000       0.00027900       0.00042953
Co      10.06232142      10.25274378       8.56387077       0.00044438       0.00003928       0.00028608
Co       6.85971164       7.87221920       7.75916740      -0.00021001      -0.00020622      -0.00028463
Co       6.95031476      10.24187322       7.73096160      -0.00015224       0.00001753       0.00072692
Co       9.54497938       7.89131722      10.87206273      -0.00026628       0.00008129      -0.00017489
Co       9.49583984      10.21760118      10.85827683       0.00036447       0.00002973      -0.00037116
Co       8.74967997       9.08392052       7.02011811      -0.00009093      -0.00011562      -0.00050346
Co       8.73017300       6.77207139       7.03694550       0.00021333      -0.00021064      -0.00043254
Co      11.33972754       9.09427041      10.10376431      -0.00029887      -0.00000491       0.00013349
13
Lattice="17.784127 0.0 0.0 0.0 17.784127 0.0 0.0 0.0 17.784127" Properties=species:S:1:pos:R:3:forces:R:3 config_type=qcd dft_energy=-68.71612333 gap_energy=-68.43896669581603 relaxed_gap_energy=-68.47578490452061 energy=-68.47578490452061 free_energy=-68.47578490452061 pbc="T T T"
Co       8.21262319      11.26168529       9.42596447       0.00014109      -0.00063482      -0.00050744
Co       8.21261325       6.52244319       9.42595730       0.00014142       0.00063438      -0.00050790
Co       8.20684861       8.89206421       9.47604145      -0.00030007      -0.00000042       0.00023031
Co      10.10765340       7.69831639       8.76163793      -0.00029588      -0.00050270       0.00062043
Co      10.10765836      10.08580629       8.76164133      -0.00029615       0.00050222       0.00062064
Co       6.91493619       7.67749856       7.90336413       0.00076901       0.00005123       0.00020424
Co       6.91494043      10.10663908       7.90336876       0.00076981      -0.00005113       0.00020357
Co       9.57710435       7.73702185      11.02709440       0.00011015       0.00054143      -0.00059149
Co       9.57710992      10.04709587      11.02709768       0.00010914      -0.00054079      -0.00059114
Co       8.76649309       8.89206643       7.18797135      -0.00081919      -0.00000001      -0.00002129
Co       8.79578314      11.21655337       7.21078228      -0.00014798       0.00012882       0.00008272
Co       8.79577508       6.56757900       7.21077537      -0.00014914      -0.00012865       0.00008259
Co      11.40728631       8.89205581      10.27512885      -0.00003223       0.00000046       0.00017475
14
Lattice="20.99190535409898 0.0 0.0 0.0 20.99190535409898 0.0 0.0 0.0 20.99190535409898" Properties=species:S:1:pos:R:3:forces:R:3 config_type=qcd dft_energy=-74.27559164 gap_energy=-73.97732665205358 relaxed_gap_energy=-74.12143965252295 energy=-74.12143965252295 free_energy=-74.12143965252295 pbc="T T T"
Co      10.50600463       9.54080593      11.62697337       0.00040288       0.00020244       0.00031095
Co      12.77658470       9.38291916      11.61781061       0.00014422      -0.00053956       0.00037632
Co       8.26203156       9.28370583      11.44113143      -0.00008850       0.00008302      -0.00030225
Co      11.73084911      11.52523037      11.43861748      -0.00030432      -0.00012379       0.00014621
Co       9.28736841      11.51780623      11.39112389       0.00016288       0.00042370       0.00069183
Co      10.51635280      13.49037794      11.27689188      -0.00016845       0.00075229       0.00014522
Co      10.18999745       7.41583978      11.13241207       0.00007003      -0.00043434      -0.00056287
Co      10.54965326      10.72021799       9.54755805       0.00002506      -0.00075083      -0.00060520
Co      12.90531195      10.58877830       9.68343293       0.00034336      -0.00020615      -0.00008766
Co       8.12487898      10.69035116       9.60230585       0.00039646      -0.00040615       0.00037844
Co      11.71967090      12.74734170       9.46639812      -0.00020479       0.00028377      -0.00036879
Co       9.39546716      12.76314395       9.42315934      -0.00039004      -0.00000839      -0.00034500
Co      11.68162722       8.58277364       9.78645104      -0.00075456       0.00011100       0.00036736
Co       9.29753935       8.69404550       9.50907142       0.00036578       0.00061300      -0.00014455
15
Lattice="19.143283 0.0 0.0 0.0 19.143283 0.0 0.0 0.0 19.143283" Properties=species:S:1:pos:R:3:forces:R:3 config_type=qcd dft_energy=-80.1383548 gap_energy=-79.90056586015054 relaxed_gap_energy=-79.94012238724613 energy=-79.94012238724613 free_energy=-79.94012238724613 pbc="T T T"
Co       9.57165249       8.68617085      10.54813807      -0.00014939      -0.00073041       0.00012763
Co      11.91491995       8.69980619      10.51457245      -0.00026419       0.00023758      -0.00047998
Co       7.22845173       8.69984684      10.51487931       0.00012931       0.00014874      -0.00065380
Co      10.76619882      10.77726042      10.41164006       0.00034253       0.00014713      -0.00057388
Co       8.37692424      10.77742521      10.41136959      -0.00001783      -0.00024561      -0.00005762
Co       9.57130333      12.76910645      10.32535952       0.00040997      -0.00015431      -0.00031177
Co      10.70483570       6.64651213      10.49248819       0.00039446       0.00012807       0.00006544
Co       8.43838853       6.64649013      10.49245697      -0.00036451       0.00011016       0.00022965
Co       9.57170443      10.03536232       8.51647155      -0.00000666      -0.00003998      -0.00038509
Co      11.92370565       9.93188116       8.56925949      -0.00039075      -0.00029702       0.00085387
Co       7.21951304       9.93183960       8.56949721       0.00024270      -0.00034735       0.00002325
Co      10.73368238      12.07377814       8.48012007      -0.00008310      -0.00011420       0.00008986
Co       8.41023470      12.07358498       8.47933754      -0.00047291       0.00026145       0.00060394
Co      10.73750329       7.91277491       8.62448343      -0.00000888       0.00030003       0.00019982
Co       8.40560439       7.91278317       8.62454923       0.00023924       0.00059572       0.00026866
16
Lattice="19.7867115473688 0.0 0.0 0.0 19.7867115473688 0.0 0.0 0.0 19.7867115473688" Properties=species:S:1:pos:R:3:forces:R:3 config_type=qcd dft_energy=-85.82421871 gap_energy=-86.04888959301266 relaxed_gap_energy=-86.20646541057684 energy=-86.20646541057684 free_energy=-86.20646541057684 pbc="T T T"
Co       9.74429332       9.90316072      10.06994540       0.00010854      -0.00001122       0.00022025
Co       8.56293609      10.71342822      11.94709009      -0.00051570      -0.00077826      -0.00010157
Co      10.05777813       8.58359745      11.96940497      -0.00043083       0.00040094       0.00031905
Co      10.80386740      10.73000040      12.26361943      -0.00006608       0.00049126       0.00017027
Co       9.97911965      12.16788366      10.45152926      -0.00004373      -0.00019923      -0.00015437
Co       7.79196288      11.47355471       9.93199520       0.00070639       0.00024574       0.00035476
Co       7.88027878       8.64710056      11.21483757       0.00059247      -0.00000434      -0.00028516
Co       9.45681359       7.62804266       9.74357952       0.00025708       0.00035865      -0.00012185
Co      11.64844488       8.52253929      10.26481641      -0.00002833      -0.00062068      -0.00006035
Co      11.97800643      10.86283655      10.32406820       0.00013625       0.00071271       0.00006668
Co       9.33102506      11.19279034       8.19557491       0.00034620       0.00042625      -0.00007671
Co       9.42991017       8.81826920       7.71224952       0.00026574      -0.00051783       0.00034281
Co      11.37809784       9.90761568       8.29917726      -0.00006900      -0.00001039      -0.00053586
Co      11.31594548      12.24181120       8.58388481      -0.00039439      -0.00057091       0.00020257
Co      11.25691022       7.54197353       8.25894063      -0.00080425       0.00023686      -0.00022756
Co       7.67830246       9.35908825       9.06297920      -0.00006036      -0.00015954      -0.00011296
16
Lattice="19.305307 0.0 0.0 0.0 19.305307 0.0 0.0 0.0 19.305307" Properties=species:S:1:pos:R:3:forces:R:3 config_type=qcd dft_energy=-85.81275709 gap_energy=-85.3079778203948 relaxed_gap_energy=-85.41776095622794 energy=-85.41776095622794 free_energy=-85.41776095622794 pbc="T T T"
Co       7.92532892      10.80365459      11.96248676      -0.00007446       0.00009512      -0.00030039
Co       7.56861479       8.01941012       8.51258138      -0.00008083      -0.00031467       0.00048497
Co       9.28631756       7.49813465      10.06379961       0.00044307       0.00010354      -0.00064471
Co       9.46355128      11.56992239      10.28112472      -0.00023268      -0.00003925      -0.00021492
Co       8.26301287       9.57844879      10.06728998       0.00049113       0.00043332      -0.00013099
Co      10.13082634      10.83456878      12.42641259      -0.00002717       0.00004330       0.00015291
Co       9.96985043      10.29638991       8.39032975      -0.00023432      -0.00003837       0.00056354
Co      12.24187009      10.14480117       9.00724730       0.00034720      -0.00002859      -0.00004254
Co      10.85146896       8.15634835       8.52654520      -0.00054618      -0.00011260      -0.00020574
Co      11.76454674      11.52180676      10.82105166       0.00006791       0.00019073       0.00021330
Co       9.03967414       8.79752226      12.15383065      -0.00025928      -0.00008717       0.00023274
Co      10.61856792       9.48788862      10.56522101      -0.00015387      -0.00036085      -0.00032012
Co      11.20416230      12.18333174       8.74047851       0.00006888      -0.00013298      -0.00006348
Co       9.11041484       8.66764775       6.99817645       0.00020937       0.00004306       0.00002912
Co       7.72863215      10.31578874       7.97808458      -0.00008600      -0.00002134       0.00011713
Co       9.27561704       6.56679174       7.94779624       0.00006724       0.00022677       0.00012918
17
Lattice="19.082457 0.0 0.0 0.0 19.082457 0.0 0.0 0.0 19.082457" Properties=species:S:1:pos:R:3:forces:R:3 config_type=qcd dft_energy=-92.35442803 gap_energy=-92.11870819497709 relaxed_gap_energy=-92.1896036769631 energy=-92.1896036769631 free_energy=-92.1896036769631 pbc="T T T"
Co       8.17719569      12.32239525       9.04549376      -0.00016951      -0.00009662      -0.00013312
Co       9.66073509      11.46118414      10.58200870      -0.00026308       0.00006173      -0.00007558
Co      11.61326668      10.21571971       9.72947238       0.00009418      -0.00022298      -0.00000864
Co      10.03613130      11.23375063       8.20118549       0.00012813      -0.00027096       0.00054811
Co       7.44353802      10.53331638      10.26713551      -0.00003799       0.00063132       0.00046494
Co      11.83471286       9.98809229       7.44833538       0.00019521       0.00010573       0.00013009
Co       9.38990602       9.36207534       9.45636945      -0.00044874      -0.00042558      -0.00026142
Co       8.46192355      10.53168763      12.31506557       0.00013478       0.00028497       0.00000163
Co      10.33286422       9.37172684      11.60275947       0.00001782       0.00036855      -0.00055249
Co      11.25879938       8.09914639       8.60216031       0.00080084       0.00023260      -0.00009828
Co       8.13031777       8.48191431      11.26437303       0.00003708      -0.00010857       0.00027900
Co       9.70129688       9.11972474       7.11660788      -0.00003010       0.00017393      -0.00019076
Co       7.83958636      10.30846631       7.92913259      -0.00012073      -0.00032443      -0.00017371
Co      12.12065251       8.19887357      10.71844670      -0.00021714      -0.00031440       0.00004991
Co       7.20372460       8.41358173       9.12720816       0.00026159      -0.00025927       0.00027459
Co       9.99293037       7.29424243      10.45233651      -0.00033493      -0.00020424      -0.00004005
Co       9.00330302       7.26498679       8.34279341      -0.00004742       0.00036821      -0.00021421
18
Lattice="21.19810912110198 0.0 0.0 0.0 21.19810912110198 0.0 0.0 0.0 21.19810912110198" Properties=species:S:1:pos:R:3:forces:R:3 config_type=qcd dft_energy=-98.73868398 gap_energy=-98.16802110256305 relaxed_gap_energy=-98.29590914942605 energy=-98.29590914942605 free_energy=-98.29590914942605 pbc="T T T"
Co       9.64375474       9.34947714       8.81619993      -0.00015557       0.00004801       0.00024690
Co      10.47255402      10.70360906      10.57699640      -0.00016912       0.00013343      -0.00004294
Co      10.21467986      13.07010802      10.44921203       0.00007627       0.00001399      -0.00003846
Co      10.69857681       8.33337720      10.70039299       0.00032253       0.00021381       0.00001215
Co       9.17066563       9.47710574      12.13312213      -0.00017988      -0.00018169      -0.00025212
Co      11.52231447       9.70356746      12.46966891       0.00033474      -0.00018371      -0.00011587
Co       8.38456614       8.19874303      10.37546573      -0.00027673      -0.00010171       0.00013748
Co      11.28170969      12.07393617      12.33439241       0.00000149       0.00010225      -0.00033700
Co      12.98184925       8.62989937      11.01462545       0.00071561      -0.00065460       0.00013824
Co      12.82195021      10.94545353      10.90277954      -0.00016803      -0.00040240      -0.00000943
Co      11.99815217       9.57528295       9.13347803       0.00024113      -0.00027558       0.00025108
Co       8.93303955      11.84529336      11.99446532      -0.00059735       0.00038965       0.00032025
Co      10.90245332      10.60486522       7.33949157       0.00010123       0.00010766       0.00023521
Co       9.40227729      11.71872338       8.70434403      -0.00041993       0.00041946      -0.00052045
Co       9.98055374      10.85355470      13.80365917       0.00003418      -0.00009181      -0.00019655
Co       8.12051947      10.49401143      10.24956872      -0.00000075      -0.00010484       0.00007230
Co      12.49861491      13.25962350      10.76771980       0.00006894       0.00028217      -0.00017587
Co      11.75475079      11.94635082       9.01739991       0.00007125       0.00028590       0.00027507
19
Lattice="20.70380675720105 0.0 0.0 0.0 20.70380675720105 0.0 0.0 0.0 20.70380675720105" Properties=species:S:1:pos:R:3:forces:R:3 config_type=qcd dft_energy=-104.49081908 gap_energy=-103.8491618965134 relaxed_gap_energy=-104.02511085795673 energy=-104.02511085795673 free_energy=-104.02511085795673 pbc="T T T"
Co      12.62089928       8.52248593       9.11836791      -0.00012665       0.00002463       0.00022147
Co      10.83150544       9.57370813       8.17034667       0.00049331      -0.00061339       0.00012906
Co       9.82408897       7.49157591       8.29641049      -0.00004375       0.00028711      -0.00041339
Co      12.24454752       9.48744918      11.31673238      -0.00028321       0.00023131       0.00013771
Co      12.47074149      10.83299242       9.39346580       0.00061732       0.00012580      -0.00008677
Co      10.67864725       8.16369282      10.21524174      -0.00038180      -0.00009271       0.00029560
Co      10.57892958      11.91879053       8.41179241      -0.00018110       0.00002499       0.00000483
Co      10.31356970      10.56443721      10.33139544       0.00032426       0.00040837       0.00001343
Co       8.68830624       9.30800190       9.03903984       0.00007463      -0.00016976      -0.00009928
Co      11.92510048      11.82024775      11.52894503      -0.00000576       0.00028232      -0.00010122
Co      12.13857549      13.11984106       9.60630898      -0.00005372       0.00012682       0.00015255
Co       8.42746510      11.61629272       9.32494169      -0.00040436       0.00078560      -0.00002823
Co       8.51051798       7.84241214      10.75997041      -0.00011801      -0.00037960       0.00008817
Co      10.00637612       9.11405895      12.23564780       0.00031682      -0.00009435       0.00027563
Co       8.15071752      10.13691037      11.20527090      -0.00070046      -0.00036345       0.00015060
Co      10.02865794      12.88548502      10.53912132      -0.00020612      -0.00061914       0.00004782
Co      11.59535240      10.38402646      13.34344796      -0.00010680      -0.00019504      -0.00084439
Co       9.74041384      11.46141729      12.44344173       0.00024247       0.00037165       0.00012451
Co       7.91175185      12.44233839      11.40627568       0.00054294      -0.00014116      -0.00006810
20
Lattice="20.24731605869574 0.0 0.0 0.0 20.24731605869574 0.0 0.0 0.0 20.24731605869574" Properties=species:S:1:pos:R:3:forces:R:3 config_type=qcd dft_energy=-110.82338975 gap_energy=-109.99208934604259 relaxed_gap_energy=-110.1062836580553 energy=-110.1062836580553 free_energy=-110.1062836580553 pbc="T T T"
Co       6.65344050       9.86272680       9.93189867       0.00001973      -0.00025865       0.00039462