3
Lattice="15.82951795071696 0.0 0.0 0.0 15.82951795071696 0.0 0.0 0.0 15.82951795071696" Properties=species:S:1:pos:R:3:forces:R:3 config_type=qcd dft_energy=-19.35778249 gap_energy=-19.115281191076036 relaxed_gap_energy=-19.617980624903794 energy=-19.617980624903794 free_energy=-19.617980624903794 pbc="T T T"
Cr       8.32052014       7.51751984       9.09242731       0.00000732       0.00002131       0.00000073
Cr       9.90548594       9.48253216       8.49524169       0.00001603      -0.00001545      -0.00001611
Cr       8.81315520      10.03910927       9.45149226      -0.00002334      -0.00000586       0.00001537
4
Lattice="17.44936572169693 0.0 0.0 0.0 17.44936572169693 0.0 0.0 0.0 17.44936572169693" Properties=species:S:1:pos:R:3:forces:R:3 config_type=qcd dft_energy=-26.89247352 gap_energy=-26.429877953471056 relaxed_gap_energy=-27.805317781341877 energy=-27.805317781341877 free_energy=-27.805317781341877 pbc="T T T"
Cr       8.27511865       9.98639038       9.21688761       0.00004842      -0.00010680      -0.00021981
Cr       8.22529049       7.38831788       8.75694113       0.00000618       0.00031824      -0.00008991
Cr       9.66506953       7.74388556       9.16055876       0.00001648       0.00007981      -0.00005033
Cr       8.73325277       9.78013763       7.76434394      -0.00007108      -0.00029126       0.00036005
4
Lattice="17.44963912463711 0.0 0.0 0.0 17.44963912463711 0.0 0.0 0.0 17.44963912463711" Properties=species:S:1:pos:R:3:forces:R:3 config_type=qcd dft_energy=-26.85831704 gap_energy=-26.871994091660873 relaxed_gap_energy=-27.724451973973295 energy=-27.724451973973295 free_energy=-27.724451973973295 pbc="T T T"
Cr       6.51538927       6.83005565       4.53791451       0.00000294      -0.00011880       0.00011806
Cr       6.89573488       5.55244560       5.30040062      -0.00001991       0.00008761      -0.00008417
Cr       5.03864284       4.72612009       7.01642519       0.00000275       0.00008548      -0.00003910
Cr       4.65835169       6.00380615       6.25404098       0.00001422      -0.00005429       0.00000522
5
Lattice="19.60851094318791 0.0 0.0 0.0 19.60851094318791 0.0 0.0 0.0 19.60851094318791" Properties=species:S:1:pos:R:3:forces:R:3 config_type=qcd dft_energy=-34.16914855 gap_energy=-33.99976795189808 relaxed_gap_energy=-34.85622998759156 energy=-34.85622998759156 free_energy=-34.85622998759156 pbc="T T T"
Cr      10.61828093       8.64125414       9.53496043      -0.00024035      -0.00022619      -0.00031699
Cr       8.57164414      10.02003898      10.52672576       0.00084724       0.00005746       0.00018999
Cr      10.44935253      11.26414732       9.10582512      -0.00057403      -0.00032022       0.00018130
Cr       8.21402135       9.76228000       9.01086191      -0.00004668       0.00019821      -0.00053435
Cr      11.16797842       9.33355692      10.84290414       0.00001382       0.00029075       0.00048006
6
Lattice="18.57703276086623 0.0 0.0 0.0 18.57703276086623 0.0 0.0 0.0 18.57703276086623" Properties=species:S:1:pos:R:3:forces:R:3 config_type=qcd dft_energy=-42.13730752 gap_energy=-42.148687748258425 relaxed_gap_energy=-43.09018499006504 energy=-43.09018499006504 free_energy=-43.09018499006504 pbc="T T T"
Cr       9.70952422      10.47239484       8.12828119       0.00048136       0.00022580      -0.00008289
Cr       9.46722496      10.17453496      10.74045158      -0.00039174      -0.00006744      -0.00023956
Cr       8.43347094       7.88143970       9.75118624      -0.00016519       0.00059523       0.00028142
Cr      10.65256947       9.19573455      10.31599914       0.00031258      -0.00021009       0.00006123
Cr       8.15922146      10.19164746       8.37522430      -0.00021520      -0.00085894       0.00037554
Cr       9.30908724       7.81534679       8.41995583      -0.00002180       0.00031544      -0.00039574
7
Lattice="17.09980255071067 0.0 0.0 0.0 17.09980255071067 0.0 0.0 0.0 17.09980255071067" Properties=species:S:1:pos:R:3:forces:R:3 config_type=qcd dft_energy=-49.98174595 gap_energy=-49.59205641808973 relaxed_gap_energy=-50.28361734696501 energy=-50.28361734696501 free_energy=-50.28361734696501 pbc="T T T"
Cr       8.95646724       9.80940661       6.87858289      -0.00041914       0.00066252      -0.00013170
Cr       7.63943542      10.03606895       7.75460978       0.00003214      -0.00026045      -0.00063928
Cr       9.60262611       9.48122645       9.44607987       0.00078017      -0.00020795       0.00009020
Cr       7.22321558       8.41741891       9.92552250      -0.00001771      -0.00048589       0.00065690
Cr       9.85657352       7.36015289       7.91338174      -0.00041640      -0.00002494      -0.00011493
Cr       8.26171567       7.45259655       7.67654088       0.00082001      -0.00001354      -0.00004665
Cr       8.30927539       7.29243857      10.25459128      -0.00077906       0.00033026       0.00018545
7
Lattice="16.38753 0.0 0.0 0.0 16.38753 0.0 0.0 0.0 16.38753" Properties=species:S:1:pos:R:3:forces:R:3 config_type=qcd dft_energy=-49.95223475 gap_energy=-48.75264409151081 relaxed_gap_energy=-49.45273912574489 energy=-49.45273912574489 free_energy=-49.45273912574489 pbc="T T T"
Cr       7.00959134       6.69934397       9.41211499      -0.00011692       0.00012240       0.00026195
Cr       8.31829701       6.27808330       8.55478039       0.00021116      -0.00003921      -0.00014042
Cr       9.04532645      10.00779863       7.14307958       0.00034093       0.00044225      -0.00011427
Cr       9.70713771       8.53516393       7.00680959       0.00002402      -0.00013476      -0.00011916
Cr       9.02494071       8.46191152       9.33046510      -0.00006431      -0.00016965       0.00011817
Cr       6.88825197       9.44864971       8.85215475      -0.00019885      -0.00024696      -0.00014285
Cr       7.36280979       7.92540394       7.05695060      -0.00019603       0.00002593       0.00013658
7
Lattice="17.42043192879329 0.0 0.0 0.0 17.42043192879329 0.0 0.0 0.0 17.42043192879329" Properties=species:S:1:pos:R:3:forces:R:3 config_type=qcd dft_energy=-49.93980522 gap_energy=-49.071163936397376 relaxed_gap_energy=-49.61135139960991 energy=-49.61135139960991 free_energy=-49.61135139960991 pbc="T T T"
Cr       6.76630909       9.53744017       9.90222345      -0.00031593       0.00052235       0.00000344
Cr       9.21834358      10.54948090       9.37453421       0.00005026      -0.00047684       0.00020787
Cr      10.66379083       8.72608479       7.91454828       0.00020457       0.00049556       0.00072610
Cr       9.04568972       8.21067710       9.99434349       0.00012007       0.00023904      -0.00068253
Cr       7.32608258       7.24381138       8.58284842       0.00040974      -0.00027110       0.00041482
Cr       9.88388657       7.36345085       7.58844093      -0.00051305      -0.00033064      -0.00056252
Cr       8.06740939       9.34056657       7.61457296       0.00004434      -0.00017836      -0.00010718
8
Lattice="17.64935497058226 0.0 0.0 0.0 17.64935497058226 0.0 0.0 0.0 17.64935497058226" Properties=species:S:1:pos:R:3:forces:R:3 config_type=qcd dft_energy=-58.16292229 gap_energy=-57.94500739939714 relaxed_gap_energy=-58.84659058934814 energy=-58.84659058934814 free_energy=-58.84659058934814 pbc="T T T"
Cr       8.45458495       9.69695232       8.98687181      -0.00027423      -0.00014808      -0.00043241
Cr      10.70803768      11.34924033       8.53909209       0.00047322       0.00017630      -0.00051114
Cr      11.47950621      11.07655627       9.91976517      -0.00027732      -0.00025667      -0.00007731
Cr      10.97512275       8.77786796       9.33742019      -0.00023828      -0.00020772      -0.00020107
Cr      11.42462267       8.57773500      10.86133482       0.00020719      -0.00001922       0.00030957
Cr       8.84917080       9.14795340      10.44242801       0.00035567       0.00001538      -0.00022008
Cr       9.27237241      11.50390705      10.82717618      -0.00057858       0.00024976       0.00047968
Cr       9.98217937      10.88699523      12.12332838       0.00033234       0.00019025       0.00065277
9
Lattice="17.346263 0.0 0.0 0.0 17.346263 0.0 0.0 0.0 17.346263" Properties=species:S:1:pos:R:3:forces:R:3 config_type=qcd dft_energy=-65.49576275 gap_energy=-65.13757385792078 relaxed_gap_energy=-65.77915839067265 energy=-65.77915839067265 free_energy=-65.77915839067265 pbc="T T T"
Cr       7.89403930       7.89059492       6.16405826       0.00025184      -0.00001144       0.00013984
Cr       9.50988441       7.89131057       6.18253473      -0.00016109      -0.00011544      -0.00039645
Cr       8.68869748      10.15588322       7.24698909       0.00039320      -0.00018098       0.00041362
Cr       6.92476177       9.21548354       8.65142572      -0.00016377      -0.00023754      -0.00016976
Cr      10.42108980       9.21701266       8.69127938      -0.00029548       0.00008856      -0.00039653
Cr       8.67353033       7.70809910       8.67628845      -0.00008161       0.00014876       0.00028417
Cr       7.83699912       7.90695501      11.16887305       0.00015833       0.00024124      -0.00030480
Cr       9.45283593       7.90769110      11.18728771      -0.00010233       0.00002846      -0.00008980
Cr       8.65634516      10.16515337      10.08944680       0.00000091       0.00003839       0.00051971
9
Lattice="17.11834947535228 0.0 0.0 0.0 17.11834947535228 0.0 0.0 0.0 17.11834947535228" Properties=species:S:1:pos:R:3:forces:R:3 config_type=qcd dft_energy=-65.48565408 gap_energy=-65.50831117527395 relaxed_gap_energy=-66.52394331944447 energy=-66.52394331944447 free_energy=-66.52394331944447 pbc="T T T"
Cr       9.21326946       7.02178170      10.43493733      -0.00007490      -0.00017666      -0.00010967
Cr       7.97797722       7.97026157       7.29063192      -0.00024810       0.00008321      -0.00037799
Cr       7.73711987       6.92932217       9.76393116      -0.00018639      -0.00006739       0.00069796
Cr       7.09308894       9.49727678       9.26163786      -0.00046373      -0.00016109       0.00064078
Cr       7.66520642       9.31209218      10.74660850       0.00021849       0.00001449      -0.00011631
Cr       9.68088689       9.18690649       8.92388450      -0.00014299      -0.00003544       0.00024250
Cr       9.79678142       9.60917472       6.20806910       0.00024015       0.00022663      -0.00017210
Cr       9.21190666       6.95765650       7.59401158       0.00035927       0.00019419      -0.00018558
Cr       8.65633578      10.54810053       6.80886070       0.00029819      -0.00007793      -0.00061959
10
Lattice="15.14163292060132 0.0 0.0 0.0 15.14163292060132 0.0 0.0 0.0 15.14163292060132" Properties=species:S:1:pos:R:3:forces:R:3 config_type=qcd dft_energy=-73.42932053 gap_energy=-72.65054145680791 relaxed_gap_energy=-73.84342352375877 energy=-73.84342352375877 free_energy=-73.84342352375877 pbc="T T T"
Cr       8.43769224       7.88991155       6.72334868       0.00004700      -0.00010861       0.00029002
Cr       7.28378723       5.35401603       5.63149792      -0.00064002      -0.00063965      -0.00006216
Cr       6.65807036       7.71568404       6.72384133      -0.00025284       0.00031115       0.00014892
Cr       7.79054090      10.46989972       7.01880636       0.00015522       0.00014181      -0.00002560
Cr       6.02530063       5.03069773       6.55277518       0.00001927      -0.00015976      -0.00054483
Cr       5.83529404       6.43634529       8.87228133      -0.00003380       0.00014524      -0.00024984
Cr       8.03321231       5.91588766       8.15569804       0.00077235       0.00040790       0.00044257
Cr       9.09814737      10.29633000       7.91157979      -0.00039033       0.00057141      -0.00010842
Cr       9.38502261       7.90849300       9.17918000       0.00011958      -0.00063139       0.00029598
Cr       7.16109688       8.69089956       8.93915598       0.00020358      -0.00003811      -0.00018665
11
Lattice="19.182434 0.0 0.0 0.0 19.182434 0.0 0.0 0.0 19.182434" Properties=species:S:1:pos:R:3:forces:R:3 config_type=qcd dft_energy=-81.19759914 gap_energy=-81.19565033306475 relaxed_gap_energy=-81.99899579780364 energy=-81.99899579780364 free_energy=-81.99899579780364 pbc="T T T"
Cr       9.85009866      12.54554305       8.25396142      -0.00024442       0.00011741       0.00022033
Cr      10.16691051      11.74831953       6.88451232       0.00062706      -0.00068362       0.00003737
Cr      11.50588704      10.61344216       8.83982230      -0.00055147       0.00024656       0.00015660
Cr       8.98389333       7.19823093      12.08433564      -0.00042644       0.00004076      -0.00052253
Cr       8.35223975       7.68944640       9.19066180       0.00044826       0.00014573      -0.00000715
Cr       7.76334082       9.21931786      10.93126873       0.00067714      -0.00033537      -0.00010517
Cr      10.47742229       8.84838347       7.59744614      -0.00036023      -0.00026920      -0.00027141
Cr      10.36614376       8.33817788      10.13571301      -0.00067843       0.00061478       0.00008335
Cr       8.72104257      10.12943182       8.39960603       0.00014147       0.00022325       0.00041680
Cr       9.59043048       8.57220264      12.68069989       0.00051357       0.00030369       0.00011420
Cr       9.72597780      10.60089128      10.50535971      -0.00014652      -0.00040400      -0.00012240
12
Lattice="19.19022149769399 0.0 0.0 0.0 19.19022149769399 0.0 0.0 0.0 19.19022149769399" Properties=species:S:1:pos:R:3:forces:R:3 config_type=qcd dft_energy=-89.48155155 gap_energy=-89.81439615328675 relaxed_gap_energy=-90.71900681542546 energy=-90.71900681542546 free_energy=-90.71900681542546 pbc="T T T"
Cr       9.94126835      10.21405998       9.59013646      -0.00050527       0.00029999       0.00053470
Cr       9.67720109      10.53999712      12.22923578       0.00002730       0.00017319      -0.00020670
Cr       9.54788146       8.97388148      11.88842789       0.00028017       0.00018714       0.00007010
Cr       8.92086351      10.92318910       7.22447260       0.00011330       0.00009115      -0.00007953
Cr      10.29423584       8.52253580       7.59319546       0.00009583      -0.00023186      -0.00036660
Cr      11.28410424       7.98854923      10.05749539       0.00009540      -0.00013802      -0.00014501
Cr       7.71339564      11.62099305      10.03461793      -0.00033904      -0.00000594      -0.00007250
Cr       8.60103491       7.81741342       9.60923918      -0.00025724       0.00001544       0.00005162
Cr      12.09868285       9.17452810      10.77548064       0.00082667      -0.00038583      -0.00017494
Cr      11.63127990       9.41130141       7.68227591      -0.00003801      -0.00001568       0.00054283
Cr       7.48515765      10.11701670      10.55570620      -0.00035478      -0.00012624      -0.00008194
Cr       7.94622357       9.83786360       7.90104556       0.00005568       0.00013666      -0.00007204
13
Lattice="25.07467749248021 0.0 0.0 0.0 25.07467749248021 0.0 0.0 0.0 25.07467749248021" Properties=species:S:1:pos:R:3:forces:R:3 config_type=qcd dft_energy=-97.59449054 gap_energy=-96.23093121365045 relaxed_gap_energy=-97.98973569446196 energy=-97.98973569446196 free_energy=-97.98973569446196 pbc="T T T"
Cr      12.53733875      12.53733875      12.53733875       0.00000000       0.00000000      -0.00000000
Cr      13.02022646      12.53733876      14.80674644       0.00051271      -0.00000000       0.00006244
Cr      13.16395247      10.22403674      13.91070508       0.00035272       0.00035237       0.00031945
Cr      10.91970130      11.00468982      13.18371651      -0.00050557       0.00032203      -0.00023163
Cr      10.91970127      14.06998765      13.18371650      -0.00050557      -0.00032203      -0.00023163
Cr      13.16395243      14.85064078      13.91070506       0.00035272      -0.00035237       0.00031945
Cr      15.08121138      12.53733877      13.61371916       0.00001127       0.00000000       0.00012228
Cr      11.91072506      10.22403672      11.16397244      -0.00035272       0.00035237      -0.00031945
Cr       9.99346612      12.53733872      11.46095833      -0.00001127       0.00000000      -0.00012228
Cr      11.91072502      14.85064075      11.16397242      -0.00035272      -0.00035237      -0.00031945
Cr      14.15497620      14.06998767      11.89096098       0.00050557      -0.00032203       0.00023163
Cr      14.15497622      11.00468985      11.89096100       0.00050557       0.00032203       0.00023163
Cr      12.05445103      12.53733873      10.26793105      -0.00051271       0.00000000      -0.00006244
14
Lattice="19.02190303517899 0.0 0.0 0.0 19.02190303517899 0.0 0.0 0.0 19.02190303517899" Properties=species:S:1:pos:R:3:forces:R:3 config_type=qcd dft_energy=-105.33296874 gap_energy=-104.18823014392463 relaxed_gap_energy=-104.43741504204368 energy=-104.43741504204368 free_energy=-104.43741504204368 pbc="T T T"
Cr      11.61929889       9.44243937       7.58512980       0.00039812       0.00008853      -0.00021935
Cr      10.46707943       7.60366489       8.66888429       0.00008850      -0.00037465      -0.00006005
Cr       8.33921137      11.72208217       8.13347172      -0.00005844      -0.00016664       0.00047149
Cr      10.00613574       9.61064260      12.05837673       0.00018818      -0.00003803      -0.00037748
Cr      12.05876043       9.42043317      10.00712924      -0.00067829       0.00020974       0.00019502
Cr       8.71275208      11.74565510      10.56654285       0.00029056      -0.00038112      -0.00014173
Cr       7.59490408       9.81516161      11.60747495      -0.00008882       0.00028797      -0.00010385
Cr       7.26067969       9.83203370       9.20506620      -0.00046307       0.00017127      -0.00018054
Cr       8.49981509       7.78556784      10.63509327       0.00045121       0.00034477      -0.00030118
Cr       9.22753948       9.64989812       7.23871479       0.00008291      -0.00020358       0.00035543
Cr       9.65544440       9.68801838       9.63910587      -0.00041009      -0.00022693      -0.00014324
Cr      10.76525906      11.55543623       8.51530462      -0.00005800      -0.00024001       0.00021657
Cr       8.07144806       7.74662530       8.23413005      -0.00004409       0.00044578       0.00011193
Cr      10.87499345       7.53566278      11.05889687       0.00030132       0.00008289       0.00017697
14
Lattice="19.72017057373709 0.0 0.0 0.0 19.72017057373709 0.0 0.0 0.0 19.72017057373709" Properties=species:S:1:pos:R:3:forces:R:3 config_type=qcd dft_energy=-105.31409464 gap_energy=-104.95464046009869 relaxed_gap_energy=-107.70400065451398 energy=-107.70400065451398 free_energy=-107.70400065451398 pbc="T T T"
Cr      12.03113860       9.94566039       8.17563166       0.00002767       0.00018354       0.00043950
Cr      11.25425829      12.09173579      10.25933849       0.00039468      -0.00013704      -0.00015919
Cr       9.58763592      11.18295367       7.71251643       0.00017272       0.00000968      -0.00046749
Cr       9.96575066       9.82563984       9.82286317      -0.00020612       0.00004270       0.00004224
Cr      10.97848675       8.87276459       7.61750269       0.00024937       0.00017402       0.00011277
Cr      11.98573873       9.23606209      11.27217244      -0.00016581      -0.00004946      -0.00006987
Cr       9.76795267      12.42277477      10.58233092      -0.00032743       0.00023349      -0.00013833
Cr      11.66004740       7.86501080      10.51052692       0.00071769      -0.00038852      -0.00041950
Cr       9.08426266       9.90201420      12.31550361      -0.00001401      -0.00020966       0.00053758
Cr       8.52756677       9.98542858       7.51526772      -0.00027423      -0.00017193      -0.00056120
Cr       7.66796497      11.10579441      10.32794824       0.00031397      -0.00017390       0.00008883
Cr       9.50019067       8.34707087      12.02364292      -0.00041307       0.00028025       0.00019551
Cr       8.77727503       7.66205657       9.55892216      -0.00004692       0.00012565      -0.00017871
Cr       7.25292490       9.59622746      10.34702664      -0.00042852       0.00008117       0.00057785
14
Lattice="18.611668 0.0 0.0 0.0 18.611668 0.0 0.0 0.0 18.611668" Properties=species:S:1:pos:R:3:forces:R:3 config_type=qcd dft_energy=-105.29883437 gap_energy=-104.51957968981462 relaxed_gap_energy=-106.3103071894744 energy=-106.3103071894744 free_energy=-106.3103071894744 pbc="T T T"
Cr       8.63692266      11.40303177      10.28472217       0.00020872      -0.00003133       0.00032078
Cr       8.26350693       9.21642549       6.47081207       0.00008588       0.00009248      -0.00005881
Cr       9.65197747       7.58837526       7.65222293       0.00015920      -0.00033061       0.00017755
Cr       8.31582726      11.78643040       7.89222076      -0.00014247      -0.00003377      -0.00000773
Cr      10.29124428      10.49748797       7.37737028       0.00007453       0.00010650       0.00001870
Cr       7.50131525       7.27807605       8.63941326      -0.00018234      -0.00007417       0.00010593
Cr       8.42337989       8.25653342      10.89339743      -0.00012299      -0.00014423      -0.00025683
Cr      10.12604825       6.91393772       9.99195357       0.00006485      -0.00007577       0.00025224
Cr      10.73323820       7.62640162      12.28981620      -0.00028221       0.00034893      -0.00057468
Cr       7.00334632       9.66381426       8.48092412      -0.00005086      -0.00008539       0.00003214
Cr       9.20320883       9.42658071       9.09128965      -0.00014455       0.00012672      -0.00013536
Cr       9.98646841       9.93187384      11.75726600       0.00016637      -0.00012841       0.00013360
Cr      11.27523888       9.07626768       9.99055478      -0.00001186       0.00022574       0.00002546
Cr      10.86995337      11.61643980       9.46971279       0.00017772       0.00000332      -0.00003298
15
Lattice="15.06585157993324 0.0 0.0 0.0 15.06585157993324 0.0 0.0 0.0 15.06585157993324" Properties=species:S:1:pos:R:3:forces:R:3 config_type=qcd dft_energy=-113.9301275 gap_energy=-112.33527997670089 relaxed_gap_energy=-113.30880045850495 energy=-113.30880045850495 free_energy=-113.30880045850495 pbc="T T T"
Cr       6.91372705       7.80047240       4.94082383      -0.00016297      -0.00000623       0.00029700
Cr       8.71588436       6.45137020       5.67458063      -0.00017297      -0.00016823       0.00061297
Cr       7.51744278       9.64954137       6.29107755      -0.00019941      -0.00025122      -0.00026500
Cr       6.93332170       5.13293757       6.50588831      -0.00007415       0.00091210       0.00007958
Cr       5.38282117       6.92249788       6.51956323       0.00065546       0.00018926      -0.00034009
Cr       9.62346041       8.56976234       6.21804220      -0.00046490      -0.00013193       0.00014879
Cr       5.42290456       9.16362764       7.28272204      -0.00018073      -0.00042313       0.00009871
Cr       7.53292959       7.53292442       7.53291711      -0.00036970      -0.00024802       0.00022340
Cr       9.64298007       5.90227085       7.78305672      -0.00001175      -0.00003582       0.00023955
Cr       7.54850175       5.41627365       8.77474097      -0.00023343       0.00055932       0.00003930
Cr       8.13255197       9.93291333       8.55993154      -0.00002819      -0.00058731       0.00028861
Cr       5.44244261       6.49607293       8.84788247       0.00045167       0.00022329      -0.00069924
Cr       6.34993482       8.61454427       9.39118485       0.00011560      -0.00002399      -0.00017429
Cr       9.68295467       8.14330095       8.54642133       0.00016138       0.00011517      -0.00019303
Cr       8.15202935       7.26537706      10.12505406       0.00051409      -0.00012325      -0.00035626
16
Lattice="19.81643407297024 0.0 0.0 0.0 19.81643407297024 0.0 0.0 0.0 19.81643407297024" Properties=species:S:1:pos:R:3:forces:R:3 config_type=qcd dft_energy=-121.43828549 gap_energy=-119.86360974930138 relaxed_gap_energy=-123.13482489510882 energy=-123.13482489510882 free_energy=-123.13482489510882 pbc="T T T"
Cr      10.08217734       9.97379094       9.90916907       0.00072960      -0.00005702       0.00062434
Cr      11.59825307       8.64208181      11.26075769       0.00000181       0.00031757      -0.00029331
Cr       9.10130173      11.99797270      10.62109582      -0.00008203       0.00000474       0.00006348
Cr       8.49278585       8.54423762       8.24678755       0.00001870       0.00009641      -0.00045156
Cr      11.61624927       8.23258903       8.49139071       0.00006415      -0.00003138       0.00009887
Cr      11.34609399      11.31204367      11.88470812       0.00006129      -0.00051291       0.00019290
Cr      12.36310846      11.10826089       9.37625311      -0.00021799       0.00001230      -0.00001474
Cr      10.13487428      10.19409654       7.45436526      -0.00031400       0.00001126      -0.00009059
Cr      11.21141204      12.19713015       8.90946831       0.00002887      -0.00025078      -0.00022630
Cr       8.20820657      11.56858070       8.19777233      -0.00000829       0.00036670       0.00010321
Cr      10.27740093      10.44379283      12.77766588       0.00002262       0.00028685      -0.00008266
Cr      10.59577289       7.13928168       9.19842653       0.00030486      -0.00011577      -0.00006818
Cr       7.12938836      10.72915068       9.13374119       0.00014046      -0.00027399      -0.00021247
Cr      10.16919193       7.96139222      11.70709893      -0.00003339       0.00008951      -0.00004399
Cr       7.95137299      10.12061668      11.55116697      -0.00035042       0.00009528       0.00001023
Cr       8.25388287       8.36645445       9.81160508      -0.00036623      -0.00003874       0.00039078
16
Lattice="19.81643407297024 0.0 0.0 0.0 19.81643407297024 0.0 0.0 0.0 19.81643407297024" Properties=species:S:1:pos:R:3:forces:R:3 config_type=qcd dft_energy=-121.38842937 gap_energy=-120.66198343770597 relaxed_gap_energy=-122.95907107410574 energy=-122.95907107410574 free_energy=-122.95907107410574 pbc="T T T"
Cr       9.90528032       9.96466464       9.71580884      -0.00005638       0.00079370      -0.00022511
Cr      11.71616798       8.43408497      11.27866692       0.00018495      -0.00048810      -0.00015172
Cr       9.21349107      12.13744755      10.40204090      -0.00069226      -0.00065862       0.00020921
Cr       8.77237057       8.61995958       7.57351478       0.00075979       0.00018478       0.00027307
Cr      11.72104267       8.52030657       8.11588526      -0.00041004       0.00014251      -0.00028701
Cr      11.32969809      11.51313232      11.85102052       0.00061772       0.00048330       0.00020044
Cr      12.26017656      10.37577494       9.86468247      -0.00063663      -0.00064864       0.00000025
Cr      10.39043971      10.47199432       7.47763147       0.00056521      -0.00080888       0.00013252
Cr      10.99683384      12.42307547       8.89505916       0.00037020       0.00059199       0.00016335
Cr       8.20631879      11.53308125       8.05607022      -0.00004656      -0.00050831       0.00042568
Cr      10.09557594      10.89814591      12.62008149      -0.00019558      -0.00007200      -0.00021757
Cr       9.96075220       7.56898519       9.36019904      -0.00009323      -0.00012183      -0.00043175
Cr       7.39486387      10.42712306       8.96707641      -0.00070555       0.00029003       0.00001925
Cr      10.37706246       7.89178356      11.96542549       0.00001628       0.00074267       0.00040777
Cr       8.22379575       9.39930635      11.77128263       0.00049503      -0.00027176      -0.00067142
Cr       7.96760274       8.35260689      10.61702700      -0.00017294       0.00034917       0.00015304
17
Lattice="17.90299408388263 0.0 0.0 0.0 17.90299408388263 0.0 0.0 0.0 17.90299408388263" Properties=species:S:1:pos:R:3:forces:R:3 config_type=qcd dft_energy=-129.44493176 gap_energy=-127.72925301279884 relaxed_gap_energy=-131.02623663506552 energy=-131.02623663506552 free_energy=-131.02623663506552 pbc="T T T"
Cr       8.41953726       8.81799305       6.55039329       0.00019116       0.00021185       0.00067163
Cr      10.07840651       7.16231782       7.03540367      -0.00011777      -0.00007255      -0.00021133
Cr      10.43479820      10.16452262       6.46731652       0.00004322       0.00005487      -0.00005530
Cr      11.24713352       8.70331359       8.53082980      -0.00010828      -0.00037905      -0.00003959
Cr       7.23022546       7.09196807       7.80456828       0.00010150       0.00008518       0.00020342
Cr       8.27794734      11.22582363       7.79394034       0.00018767      -0.00046563      -0.00020958
Cr       8.98671539       8.91491231       8.94960536      -0.00001295       0.00024414       0.00020657
Cr      10.94485789      11.26348119       7.54139146      -0.00000711      -0.00009126       0.00013363
Cr       9.13309027       6.62932708       9.24018938      -0.00014223       0.00026449      -0.00031822
Cr       6.36865485       9.12693495       8.79383124      -0.00006283      -0.00022226       0.00005512
Cr       8.88330486      11.52686750       9.25042703      -0.00029542       0.00025886       0.00024019
Cr      10.79217516       7.66154040      10.70947921      -0.00000318       0.00010717       0.00012492
Cr       6.64031902       6.96932611      10.37849698       0.00005187      -0.00041295      -0.00007576
Cr       6.76690526       9.64284135      10.26137962       0.00014664       0.00013347      -0.00006368
Cr       7.81158944       7.38210470      11.41735825      -0.00008088       0.00008027      -0.00021992
Cr      10.93174422      10.54227913      10.08467516       0.00009565      -0.00006324      -0.00017020
Cr       9.22804507       9.34989620      11.36616412       0.00001292       0.00026664      -0.00027192
18