3
Lattice="25.18083385745505 0.0 0.0 0.0 25.18083385745505 0.0 0.0 0.0 25.18083385745505" Properties=species:S:1:pos:R:3:forces:R:3 config_type=qcd dft_energy=-6.15734545 gap_energy=-5.684867546242973 relaxed_gap_energy=-5.790725073817054 energy=-5.790725073817054 free_energy=-5.790725073817054 pbc="T T T"
Cs      15.36998887      11.54238944      12.64665004      -0.00056103       0.00005842       0.00012630
Cs      11.88912640      14.84421208      10.78782319       0.00027583       0.00042263      -0.00046785
Cs      10.51213552      11.38464927      14.33677755       0.00028520      -0.00048105       0.00034155
3
Lattice="25.78294213948145 0.0 0.0 0.0 25.78294213948145 0.0 0.0 0.0 25.78294213948145" Properties=species:S:1:pos:R:3:forces:R:3 config_type=qcd dft_energy=-6.13646077 gap_energy=-5.408621858178574 relaxed_gap_energy=-5.790725654760077 energy=-5.790725654760077 free_energy=-5.790725654760077 pbc="T T T"
Cs      14.24854151      14.72925726      14.79017813      -0.00004411       0.00001761       0.00010194
Cs      10.37686119      11.52510926      13.68725427      -0.00013656      -0.00000458       0.00019051
Cs      14.04901051      12.42004668      10.19698081       0.00018067      -0.00001303      -0.00029245
3
Lattice="22.7973478401237 0.0 0.0 0.0 22.7973478401237 0.0 0.0 0.0 22.7973478401237" Properties=species:S:1:pos:R:3:forces:R:3 config_type=qcd dft_energy=-6.13604383 gap_energy=-5.675192075028772 relaxed_gap_energy=-5.79072570879708 energy=-5.79072570879708 free_energy=-5.79072570879708 pbc="T T T"
Cs      13.32793332      11.62025041      13.64667650      -0.00010584      -0.00001317      -0.00012866
Cs      12.37149289      10.77234059       8.66274045       0.00003876       0.00001112       0.00008010
Cs       8.49659555      11.80343075      11.88660481       0.00006708       0.00000206       0.00004856
4
Lattice="23.60468376239249 0.0 0.0 0.0 23.60468376239249 0.0 0.0 0.0 23.60468376239249" Properties=species:S:1:pos:R:3:forces:R:3 config_type=qcd dft_energy=-8.42404326 gap_energy=-7.733683308211232 relaxed_gap_energy=-7.938728455569509 energy=-7.938728455569509 free_energy=-7.938728455569509 pbc="T T T"
Cs      13.73127499      10.66661804      10.45868472       0.00035955       0.00081431       0.00021026
Cs      11.47213759       8.19048569      14.38754541      -0.00038518      -0.00052434      -0.00043384
Cs      10.00807549      13.01259531      13.26060945       0.00012629       0.00045609       0.00081191
Cs      11.99787946      15.33966849       9.10252795      -0.00010066      -0.00074605      -0.00058834
5
Lattice="23.97493235769174 0.0 0.0 0.0 23.97493235769174 0.0 0.0 0.0 23.97493235769174" Properties=species:S:1:pos:R:3:forces:R:3 config_type=qcd dft_energy=-10.75088072 gap_energy=-10.007083914212146 relaxed_gap_energy=-10.056678629303008 energy=-10.056678629303008 free_energy=-10.056678629303008 pbc="T T T"
Cs      14.86308576      16.61971072      11.24745717      -0.00016942      -0.00035151      -0.00019168
Cs      14.30079237      11.97488173       9.04505425       0.00037366       0.00040519       0.00008175
Cs      11.53227403      13.20305800      13.34984666      -0.00039395      -0.00065548       0.00015931
Cs      10.97977193       8.51369561      11.02063301       0.00022962       0.00001679      -0.00059350
Cs       8.26140682       9.62598484      15.27433980      -0.00003990       0.00058501       0.00054412
5
Lattice="30.5065990967048 0.0 0.0 0.0 30.5065990967048 0.0 0.0 0.0 30.5065990967048" Properties=species:S:1:pos:R:3:forces:R:3 config_type=qcd dft_energy=-10.7114861 gap_energy=-10.012441220064645 relaxed_gap_energy=-10.4673780726729 energy=-10.4673780726729 free_energy=-10.4673780726729 pbc="T T T"
Cs      12.26985734      17.77847569      14.60701124      -0.00014830      -0.00002328      -0.00003290
Cs      18.23702337      12.72840602      15.89943680       0.00002958      -0.00009541       0.00003943
Cs      15.10799381      14.26260558      12.05349558       0.00004387       0.00014172       0.00010948
Cs      13.41979770      13.68208082      17.57927603      -0.00001318      -0.00000918      -0.00001325
Cs      17.23182551      17.81492962      16.12727809       0.00008804      -0.00001385      -0.00010276
5
Lattice="28.63594958675741 0.0 0.0 0.0 28.63594958675741 0.0 0.0 0.0 28.63594958675741" Properties=species:S:1:pos:R:3:forces:R:3 config_type=qcd dft_energy=-10.70829328 gap_energy=-9.995307521584309 relaxed_gap_energy=-10.467377936690994 energy=-10.467377936690994 free_energy=-10.467377936690994 pbc="T T T"
Cs      13.47269248      11.26676335      11.93633988      -0.00016092       0.00018686       0.00005276
Cs      11.04602914      14.97960677      14.63221637       0.00037999      -0.00016908       0.00000232
Cs      15.16389321      17.36909864      16.69958307      -0.00015300      -0.00023617      -0.00002860
Cs      15.81891225      12.22559317      16.46522252      -0.00008520       0.00037439      -0.00011691
Cs      16.08834689      15.74881204      11.85651213       0.00001913      -0.00015600       0.00009043
5
Lattice="23.61872766178443 0.0 0.0 0.0 23.61872766178443 0.0 0.0 0.0 23.61872766178443" Properties=species:S:1:pos:R:3:forces:R:3 config_type=qcd dft_energy=-10.70372734 gap_energy=-9.848398977646696 relaxed_gap_energy=-10.059070147424293 energy=-10.059070147424293 free_energy=-10.059070147424293 pbc="T T T"
Cs      11.32262752       8.00910995       7.90238450       0.00002614      -0.00027204      -0.00010159
Cs      13.34332926      10.67257905      11.90614159       0.00013060       0.00010420      -0.00008961
Cs       8.42722374      11.53980751      10.34562194      -0.00018382      -0.00008692      -0.00004446
Cs      14.98194885      13.62430795      15.88264994       0.00003739      -0.00013421       0.00011333
Cs      10.97168979      15.20101470      13.01002118      -0.00001032       0.00038897       0.00012233
6
Lattice="29.4617298873218 0.0 0.0 0.0 29.4617298873218 0.0 0.0 0.0 29.4617298873218" Properties=species:S:1:pos:R:3:forces:R:3 config_type=qcd dft_energy=-13.1389537 gap_energy=-12.41489170956134 relaxed_gap_energy=-12.424874348024824 energy=-12.424874348024824 free_energy=-12.424874348024824 pbc="T T T"
Cs      18.75906943      15.82390884      16.19174608       0.00003404       0.00077006       0.00003358
Cs      14.65490279      18.96105150      16.01564510       0.00048321       0.00013866       0.00011299
Cs      10.53428679      16.13262170      14.70081528      -0.00055833      -0.00051669      -0.00022682
Cs      12.09399317      11.24424264      14.07439904      -0.00031410       0.00030981       0.00016219
Cs      17.17745100      11.05381535      14.98829383      -0.00004034      -0.00070685      -0.00032228
Cs      15.16548650      15.16954962      12.41429035       0.00039554       0.00000501       0.00024033
6
Lattice="31.32285752884781 0.0 0.0 0.0 31.32285752884781 0.0 0.0 0.0 31.32285752884781" Properties=species:S:1:pos:R:3:forces:R:3 config_type=qcd dft_energy=-13.10769717 gap_energy=-12.096214937018027 relaxed_gap_energy=-12.148991645092517 energy=-12.148991645092517 free_energy=-12.148991645092517 pbc="T T T"
Cs      10.44527167      18.67277504      15.66194183       0.00008259      -0.00028502      -0.00000637
Cs      12.98001511      14.11240020      15.66187281       0.00017339       0.00025484       0.00000537
Cs      15.66189965       9.63715779      15.66188528       0.00007491       0.00043235      -0.00000574
Cs      20.87667861      18.67477116      15.66055355       0.00012149      -0.00071085      -0.00000666
Cs      15.66130208      18.75875987      15.66116680      -0.00035048      -0.00038890       0.00000740
Cs      18.34340545      14.11270854      15.66115231      -0.00010190       0.00069758       0.00000599
6
Lattice="23.43605439100469 0.0 0.0 0.0 23.43605439100469 0.0 0.0 0.0 23.43605439100469" Properties=species:S:1:pos:R:3:forces:R:3 config_type=qcd dft_energy=-13.10522084 gap_energy=-12.476236437762745 relaxed_gap_energy=-12.671138603476857 energy=-12.671138603476857 free_energy=-12.671138603476857 pbc="T T T"
Cs      11.35492774       8.49972437       8.74537790      -0.00078651      -0.00028609       0.00043399
Cs       9.76414055      12.95956918      14.21644145      -0.00012877      -0.00076261      -0.00046509
Cs       7.97946382      12.33642281       9.41006686       0.00010803       0.00078060      -0.00054655
Cs      13.11266433      13.32366309       9.77616781       0.00002981       0.00009865       0.00083374
Cs      13.23928030       9.18077354      13.50586520       0.00097144      -0.00014321       0.00017114
Cs      14.85768645      14.00801017      14.65424396      -0.00019401       0.00031266      -0.00042723
6
Lattice="23.800679 0.0 0.0 0.0 23.800679 0.0 0.0 0.0 23.800679" Properties=species:S:1:pos:R:3:forces:R:3 config_type=qcd dft_energy=-13.10367947 gap_energy=-12.817514069546457 relaxed_gap_energy=-12.922326124301359 energy=-12.922326124301359 free_energy=-12.922326124301359 pbc="T T T"
Cs       9.45092155      14.68232279      11.75756653      -0.00042192       0.00046363       0.00008607
Cs      10.32014770      10.35581273       8.91940117       0.00014008       0.00043764      -0.00084524
Cs       9.60533651       9.99270531      14.10325145      -0.00011530      -0.00016173       0.00094269
Cs      14.19536203      13.80852831       9.69783327       0.00011357      -0.00000130      -0.00095588
Cs      14.34968552       9.11833301      12.04210128       0.00057450      -0.00043189       0.00041932
Cs      13.48058369      13.44433484      14.88188331      -0.00029094      -0.00030636       0.00035305
6
Lattice="22.677589 0.0 0.0 0.0 22.677589 0.0 0.0 0.0 22.677589" Properties=species:S:1:pos:R:3:forces:R:3 config_type=qcd dft_energy=-13.09775094 gap_energy=-12.771984217653904 relaxed_gap_energy=-12.922327638753908 energy=-12.922327638753908 free_energy=-12.922327638753908 pbc="T T T"
Cs       8.30106494      11.37549722       9.20882115       0.00040746      -0.00007950       0.00019263
Cs      12.82724291       8.72173648       9.17072689      -0.00026473       0.00013192       0.00015844
Cs      12.86310228      13.96852576       9.21088345      -0.00021467      -0.00014269      -0.00027870
Cs       9.81496380       8.70934906      13.46742032      -0.00018714      -0.00017994      -0.00043502
Cs      14.37568740      11.30210808      13.46851016       0.00073412      -0.00016069       0.00020977
Cs       9.85070568      13.95555041      13.50640504      -0.00047503       0.00043089       0.00015287
7
Lattice="24.35530178386132 0.0 0.0 0.0 24.35530178386132 0.0 0.0 0.0 24.35530178386132" Properties=species:S:1:pos:R:3:forces:R:3 config_type=qcd dft_energy=-15.63767001 gap_energy=-15.194473868977685 relaxed_gap_energy=-15.204831232505786 energy=-15.204831232505786 free_energy=-15.204831232505786 pbc="T T T"
Cs      10.58626896       9.09735541       9.40084972       0.00026899       0.00014401       0.00018446
Cs      15.18057615       8.92266640      11.87261380       0.00015294       0.00041454       0.00027521
Cs      13.43412548      13.54616441       9.94055412      -0.00001345      -0.00012565      -0.00032693
Cs      10.92256481      10.80893508      14.41543490      -0.00031413       0.00000527       0.00005568
Cs      15.62415255      13.24607221      14.76656999       0.00030977      -0.00068896      -0.00032685
Cs      11.30448192      16.09336452      14.08037131      -0.00032765       0.00017761       0.00014327
Cs       8.19138637      13.52899822      10.76716240      -0.00007646       0.00007319      -0.00000484
8
Lattice="24.67791191487673 0.0 0.0 0.0 24.67791191487673 0.0 0.0 0.0 24.67791191487673" Properties=species:S:1:pos:R:3:forces:R:3 config_type=qcd dft_energy=-18.05521891 gap_energy=-17.509935094085648 relaxed_gap_energy=-17.58239260194523 energy=-17.58239260194523 free_energy=-17.58239260194523 pbc="T T T"
Cs      12.69721204      14.58233314       8.00140860       0.00011573      -0.00027162      -0.00063677
Cs      15.52876264      11.45109295      11.16896428      -0.00025411       0.00002986       0.00044648
Cs      13.17274054      15.70962010      13.09635841       0.00053300       0.00009628       0.00055948
Cs      15.15155867      12.02838537      16.35162493      -0.00043759       0.00006224      -0.00074680
Cs      10.54892603      10.27113185      10.06789563       0.00013481       0.00063739       0.00023837
Cs       8.41489911      14.96097748      11.03064979      -0.00021204      -0.00041239       0.00021165
Cs      13.09865350       7.77649453      13.98278560       0.00012863      -0.00001619       0.00004542
Cs      10.09889513      11.93161225      15.01196041      -0.00000842      -0.00012556      -0.00011783
9
Lattice="25.0924718238815 0.0 0.0 0.0 25.0924718238815 0.0 0.0 0.0 25.0924718238815" Properties=species:S:1:pos:R:3:forces:R:3 config_type=qcd dft_energy=-20.25082532 gap_energy=-19.77541842670952 relaxed_gap_energy=-19.81503652395915 energy=-19.81503652395915 free_energy=-19.81503652395915 pbc="T T T"
Cs      12.65593179      12.61426077       8.12130862       0.00015646      -0.00006077       0.00007965
Cs      15.31663648      15.19204661      11.93086316      -0.00054025      -0.00002388      -0.00004965
Cs      15.13106414       9.96476221      11.87535874      -0.00040461      -0.00052966      -0.00044387
Cs       7.43635878      12.46298326       8.34985062       0.00039869       0.00022280       0.00017518
Cs      10.18375542      14.28966274      12.49954143       0.00046600      -0.00013377       0.00062296
Cs      17.02917800      12.48586092      16.09109970      -0.00016761       0.00040340       0.00022617
Cs      10.00429955       9.10195410      11.41860962       0.00005440       0.00003414      -0.00016674
Cs      13.11983727      15.94748675      16.62913794      -0.00022790      -0.00037709      -0.00043882
Cs      12.03906177      10.85710585      16.00035337       0.00026481       0.00046484      -0.00000488
9
Lattice="29.05822100311752 0.0 0.0 0.0 29.05822100311752 0.0 0.0 0.0 29.05822100311752" Properties=species:S:1:pos:R:3:forces:R:3 config_type=qcd dft_energy=-20.24834121 gap_energy=-19.835853631940047 relaxed_gap_energy=-19.86450985643122 energy=-19.86450985643122 free_energy=-19.86450985643122 pbc="T T T"
Cs      11.15676388      16.47981432      13.65753679      -0.00042678       0.00024501      -0.00012531
Cs      14.32708491      13.59027283      10.65523951       0.00033310       0.00043349      -0.00032664
Cs      11.32873192      14.96514921      18.71298532      -0.00001040      -0.00008859       0.00039559
Cs      16.06987216      12.82759049      17.79245142       0.00024209      -0.00043800       0.00056442
Cs      12.00390733      11.44657908      14.83022357       0.00013564      -0.00017002      -0.00001518
Cs      15.22258091      17.85959956      16.62139365      -0.00015134       0.00020571       0.00029946
Cs      18.39480523      14.96991166      13.61814824      -0.00047532       0.00011764      -0.00035493
Cs      15.38594844      18.70920838      11.41222907       0.00028964       0.00052583      -0.00072237
Cs      16.87229973       9.91386898      13.46178696       0.00006339      -0.00083107       0.00028496
9
Lattice="29.92646827690056 0.0 0.0 0.0 29.92646827690056 0.0 0.0 0.0 29.92646827690056" Properties=species:S:1:pos:R:3:forces:R:3 config_type=qcd dft_energy=-20.23409922 gap_energy=-19.835863122704026 relaxed_gap_energy=-19.8893128307396 energy=-19.8893128307396 free_energy=-19.8893128307396 pbc="T T T"
Cs      12.69143868      15.87839606      14.33782458       0.00031133       0.00031568      -0.00002774
Cs      14.32960925      13.60753203       9.83339886       0.00039559      -0.00001011      -0.00004263
Cs      11.56064649      12.47662671      18.24688844      -0.00026132       0.00003850       0.00069190
Cs      16.73350016      13.54045884      18.35979388      -0.00009236      -0.00070478      -0.00012115
Cs      14.63186422      10.90580139      14.30916649       0.00018233      -0.00054869      -0.00026348
Cs      17.10848328      18.29211477      16.11787043       0.00005444      -0.00029074      -0.00093946
Cs      18.48960785      14.25405031      13.02473412      -0.00023915       0.00069431       0.00017970
Cs      15.94855352      18.42211114      11.01225825      -0.00004149       0.00009523       0.00018110
Cs      13.17540379      17.29201602      19.42717216      -0.00030937       0.00041060       0.00034176
9
Lattice="25.628288 0.0 0.0 0.0 25.628288 0.0 0.0 0.0 25.628288" Properties=species:S:1:pos:R:3:forces:R:3 config_type=qcd dft_energy=-20.22900037 gap_energy=-19.779831751845535 relaxed_gap_energy=-19.864512165672913 energy=-19.864512165672913 free_energy=-19.864512165672913 pbc="T T T"
Cs      10.59039753      16.13052537      12.87197793      -0.00050616       0.00045930       0.00037250
Cs       9.29505585      11.11277551      13.62988294      -0.00062608       0.00051082       0.00018152
Cs       9.47690916      13.05945249       8.72263969      -0.00005800      -0.00049651      -0.00037590
Cs      13.12861087       9.63724628      10.41522710       0.00039290      -0.00013726       0.00000100
Cs      13.34942394       8.30691093      15.52308683       0.00029303       0.00005513      -0.00011001
Cs      15.61558765      17.07714825      14.19728996       0.00033159       0.00035957       0.00015001
Cs      12.80554737      13.41357169      16.76128954       0.00030990      -0.00065563       0.00024789
Cs      14.42484140      14.65387467       9.65843825       0.00037340      -0.00002983      -0.00059469
Cs      16.64092222      11.93579080      13.54746377      -0.00051060      -0.00006560       0.00012769
9
Lattice="26.32594351390282 0.0 0.0 0.0 26.32594351390282 0.0 0.0 0.0 26.32594351390282" Properties=species:S:1:pos:R:3:forces:R:3 config_type=qcd dft_energy=-20.22791735 gap_energy=-19.693805621742875 relaxed_gap_energy=-19.86451228526409 energy=-19.86451228526409 free_energy=-19.86451228526409 pbc="T T T"
Cs      16.52225549      11.31306668      14.27399891       0.00004900      -0.00001509      -0.00006905
Cs      11.59620152       9.56915576      13.92656997      -0.00007212       0.00034451       0.00008807
Cs      14.02410874      11.42334526       9.67342045      -0.00047548       0.00043377      -0.00021816
Cs      17.44719444      15.25911187      10.88467368       0.00039834      -0.00016907       0.00050924
Cs       9.82843194      14.35848708      15.00389715      -0.00050133      -0.00037428      -0.00013217
Cs       8.83630863      12.21313762      10.27996383       0.00006669      -0.00012190      -0.00001063
Cs      12.25480141      16.21253575      10.75019674      -0.00007414      -0.00027503      -0.00023434
Cs      13.20355868      12.01686005      18.32287054       0.00037277       0.00010117       0.00011279
Cs      14.75388498      16.10104574      15.35115456       0.00023627       0.00007592      -0.00004575
10
Lattice="27.15556682867266 0.0 0.0 0.0 27.15556682867266 0.0 0.0 0.0 27.15556682867266" Properties=species:S:1:pos:R:3:forces:R:3 config_type=qcd dft_energy=-22.54289348 gap_energy=-22.078784018031243 relaxed_gap_energy=-22.225808805827093 energy=-22.225808805827093 free_energy=-22.225808805827093 pbc="T T T"
Cs      19.23048057      14.09025742      15.20102963       0.00067927       0.00000218      -0.00024639
Cs      15.52545664      12.73468000      11.67264204      -0.00015347      -0.00021281      -0.00027162
Cs      15.40293381      10.83377545      16.66504225       0.00012562      -0.00036948      -0.00026902
Cs      15.59650862      17.60826481      13.85074335      -0.00055814       0.00039910      -0.00001257
Cs      15.64464271      15.64968055      18.70486476       0.00013355       0.00006181       0.00075538
Cs      11.56604057       9.54398459      13.29829024      -0.00050195       0.00074227       0.00034746
Cs      11.63057719      14.42138614      15.48300077      -0.00034495      -0.00022819      -0.00018532
Cs      11.74704704      16.32418492      10.49584236       0.00026888      -0.00031294      -0.00018178
Cs      11.50962583      11.51234340       8.44717922       0.00005546       0.00014508       0.00040436
Cs       7.92452119      13.05927686      11.95919953       0.00029573      -0.00022702      -0.00034050
10
Lattice="30.75098612502911 0.0 0.0 0.0 30.75098612502911 0.0 0.0 0.0 30.75098612502911" Properties=species:S:1:pos:R:3:forces:R:3 config_type=qcd dft_energy=-22.53662622 gap_energy=-21.96055611394388 relaxed_gap_energy=-22.079003785045714 energy=-22.079003785045714 free_energy=-22.079003785045714 pbc="T T T"
Cs      15.13583792      13.03844457      11.36235970       0.00014357      -0.00053228       0.00001952
Cs      14.98785259      18.54792459      11.96787234      -0.00015282       0.00068680       0.00032347
Cs      11.57378932      15.26625021      14.34958399       0.00046398       0.00046094       0.00022682
Cs      18.93441289      15.78568403      13.81172549      -0.00038962       0.00009260      -0.00045954
Cs      11.98752268      10.18341368      15.07222646      -0.00010777       0.00003211       0.00002490
Cs      18.77340954      20.58301494      15.67617698      -0.00026002      -0.00010025      -0.00015247
Cs      16.75338821      11.78810275      16.18816432       0.00074389      -0.00055719       0.00002949
Cs      14.23290825      18.65215960      17.15289032       0.00012522      -0.00026855      -0.00037329
Cs      13.11580138      13.89405506      19.16960836       0.00011278       0.00053458      -0.00010579
Cs      18.26000784      16.01588120      19.00432266      -0.00067921      -0.00034875       0.00046688
10
Lattice="30.28506393178091 0.0 0.0 0.0 30.28506393178091 0.0 0.0 0.0 30.28506393178091" Properties=species:S:1:pos:R:3:forces:R:3 config_type=qcd dft_energy=-22.53107211 gap_energy=-22.22616034440835 relaxed_gap_energy=-22.27214683097253 energy=-22.27214683097253 free_energy=-22.27214683097253 pbc="T T T"
Cs      18.95631458      15.61395572      13.52998851      -0.00038546       0.00018750      -0.00001893
Cs      12.87288701      15.13558164      19.50185453       0.00000512       0.00011747       0.00005248
Cs      15.26963435      19.26428760      12.46770214      -0.00008158      -0.00043957       0.00009769
Cs      17.46849070      13.05145238      17.89619429       0.00001480       0.00034347       0.00016721
Cs      15.64756569      14.77785167       9.61841888       0.00015562       0.00007384       0.00032577
Cs      16.64767822      18.24719219      17.47714967      -0.00019594      -0.00015350      -0.00013169
Cs      13.20388707      14.76475442      14.26073853      -0.00014250       0.00081506      -0.00024597
Cs      13.08997313      10.37270981      17.12573355      -0.00011918      -0.00042792       0.00021351
Cs      16.58953376      10.89390663      13.14277047       0.00029793      -0.00042039      -0.00048052
Cs      11.67935514      19.30362758      16.40476908       0.00045120      -0.00009596       0.00002045
10
Lattice="26.5168337810431 0.0 0.0 0.0 26.5168337810431 0.0 0.0 0.0 26.5168337810431" Properties=species:S:1:pos:R:3:forces:R:3 config_type=qcd dft_energy=-22.49543477 gap_energy=-21.898405915881256 relaxed_gap_energy=-22.0227649612182 energy=-22.0227649612182 free_energy=-22.0227649612182 pbc="T T T"
Cs      14.88167969      13.93117820       8.94583586      -0.00017786       0.00011662       0.00039979
Cs      12.60750337      18.59010969       8.30523678      -0.00027820      -0.00015667       0.00017380
Cs      14.54533177      17.79341715      13.08938084      -0.00022990       0.00052363      -0.00063830
Cs      13.20229458      10.30608748      12.42976836       0.00009894      -0.00005208       0.00000352
Cs      17.54913152      13.56348001      13.38223404       0.00077476       0.00049190      -0.00020050
Cs      10.39209285      14.98116270      11.47922773       0.00028805       0.00002635       0.00002130
Cs      16.52175746       9.63972699      16.57819717      -0.00046549      -0.00057634       0.00007266
Cs      12.91964268      13.84912450      16.21794005       0.00039505       0.00001339      -0.00000755
Cs      11.57903688       8.63860157      17.60023132      -0.00081549      -0.00010309       0.00003829
Cs       8.38569811      11.29128061      14.55611675       0.00041015      -0.00028371       0.00013699
11
Lattice="30.33255854437444 0.0 0.0 0.0 30.33255854437444 0.0 0.0 0.0 30.33255854437444" Properties=species:S:1:pos:R:3:forces:R:3 config_type=qcd dft_energy=-24.81754479 gap_energy=-24.5464540534962 relaxed_gap_energy=-24.63771106533438 energy=-24.63771106533438 free_energy=-24.63771106533438 pbc="T T T"
Cs      13.34378275      12.98254049      10.86241505       0.00042301      -0.00022338       0.00006475
Cs      20.90218670      14.00629793      16.09386629      -0.00004665      -0.00016370       0.00026382
Cs      13.02121721      16.32073613      18.69304288      -0.00028937      -0.00023267       0.00063573
Cs      10.61123886      16.36648532      13.97974795      -0.00074255      -0.00032653       0.00045380
Cs      16.81433992      12.63763170      18.97360009       0.00003653       0.00010539      -0.00026405
Cs      13.75365840      18.30162288      10.34188094       0.00020479       0.00035918      -0.00071579
Cs      18.03675232      17.82900282      18.52523973      -0.00001267       0.00024884      -0.00001649
Cs      16.40070225      15.73059156      14.05412916       0.00022546      -0.00062568      -0.00048017
Cs      12.56434372      11.84333195      15.91749772       0.00017931      -0.00012321       0.00001459
Cs      17.30045654      10.60497884      14.04615741      -0.00033568       0.00030114      -0.00012019
Cs      14.08039330      20.20585237      15.34149477       0.00035784       0.00068063       0.00016399
12
Lattice="29.93787006199751 0.0 0.0 0.0 29.93787006199751 0.0 0.0 0.0 29.93787006199751" Properties=species:S:1:pos:R:3:forces:R:3 config_type=qcd dft_energy=-27.16640316 gap_energy=-26.986050939596474 relaxed_gap_energy=-27.055635890555266 energy=-27.055635890555266 free_energy=-27.055635890555266 pbc="T T T"
Cs      16.78918455      19.53690721      13.34767996       0.00036589       0.00041938       0.00027915
Cs      11.98885475      12.20012914      11.24829149      -0.00010254       0.00016472      -0.00011977
Cs      19.12285568      14.88273356      14.51833813      -0.00021025      -0.00026260      -0.00019058
Cs      13.01108770      14.94022173      20.12209729       0.00021159      -0.00001924       0.00030532
Cs      12.12516369      17.97309103      11.32847965      -0.00079436       0.00023477      -0.00019119
Cs      17.20176074      12.03332117      18.60321288      -0.00015850      -0.00016978      -0.00009840
Cs      16.32517721      15.00575977       9.97109294       0.00020878       0.00029399       0.00020475
Cs      17.32883730      17.69716026      18.68532722      -0.00006926       0.00025850      -0.00026828
Cs      13.85713374      14.99251099      15.09039188      -0.00000635      -0.00034445      -0.00015542
Cs      12.54369272      10.32450409      16.68234906      -0.00007407       0.00021106      -0.00012339
Cs      16.57940246      10.37323245      13.21601424       0.00052814      -0.00066353       0.00052213
Cs      12.75406983      19.66764896      16.81394566       0.00010092      -0.00012282      -0.00016432
13
Lattice="30.5305087984704 0.0 0.0 0.0 30.5305087984704 0.0 0.0 0.0 30.5305087984704" Properties=species:S:1:pos:R:3:forces:R:3 config_type=qcd dft_energy=-29.71546331 gap_energy=-29.572544310442513 relaxed_gap_energy=-29.812850141182935 energy=-29.812850141182935 free_energy=-29.812850141182935 pbc="T T T"
Cs      15.26525440      15.26525440      15.26525440       0.00000000      -0.00000000       0.00000000
Cs      15.26521086      15.26525443      20.86327663       0.00026446      -0.00000000      -0.00091287
Cs      16.81180247      10.50676942      17.76743142       0.00021262      -0.00076010       0.00031604
Cs      11.21538991      12.32345610      17.76877097       0.00018236       0.00002606      -0.00032236
Cs      11.21538985      18.20705265      17.76877095       0.00018236      -0.00002607      -0.00032236
Cs      16.81180239      20.02373943      17.76743139       0.00021262       0.00076010       0.00031604
Cs      20.27175329      15.26525445      17.76817777      -0.00058420       0.00000000      -0.00031824
Cs      13.71870641      10.50676937      12.76307741      -0.00021262      -0.00076010      -0.00031604
Cs      10.25875551      15.26525435      12.76233103       0.00058420      -0.00000000       0.00031824
Cs      13.71870633      20.02373938      12.76307738      -0.00021262       0.00076010      -0.00031604
Cs      19.31511889      18.20705270      12.76173783      -0.00018236      -0.00002606       0.00032236
Cs      19.31511895      12.32345615      12.76173785      -0.00018236       0.00002607       0.00032236
Cs      15.26529794      15.26525437       9.66723217      -0.00026446       0.00000000       0.00091287
14
Lattice="33.17521029455956 0.0 0.0 0.0 33.17521029455956 0.0 0.0 0.0 33.17521029455956" Properties=species:S:1:pos:R:3:forces:R:3 config_type=qcd dft_energy=-31.93297047 gap_energy=-31.546084550320558 relaxed_gap_energy=-31.889095495743558 energy=-31.889095495743558 free_energy=-31.889095495743558 pbc="T T T"
Cs      13.08927492      14.21156581      13.23469457      -0.00029451      -0.00032221       0.00028399
Cs      11.51529273      15.40437872      17.98474686       0.00012382       0.00022486      -0.00060525
Cs      15.43213198      13.91544109      21.95307601       0.00042933      -0.00008683      -0.00042311
Cs      18.72162548      14.20794563      13.16450640      -0.00023500       0.00012267       0.00031868