3
Lattice="22.1811888219446 0.0 0.0 0.0 22.1811888219446 0.0 0.0 0.0 22.1811888219446" Properties=species:S:1:pos:R:3:forces:R:3 config_type=qcd dft_energy=-4.42131591 gap_energy=-4.871838701911024 relaxed_gap_energy=-4.929644196872557 energy=-4.929644196872557 free_energy=-4.929644196872557 pbc="T T T"
Cu      11.11036311      11.69130257      12.30267570       0.00007059       0.00015302       0.00028139
Cu       9.92851024      10.60740275      10.59397953       0.00020099      -0.00006465      -0.00021521
Cu      12.23290989      10.97307791      10.37512799      -0.00027158      -0.00008837      -0.00006618
4
Lattice="30.0 0.0 0.0 0.0 30.0 0.0 0.0 0.0 30.0" Properties=species:S:1:pos:R:3:forces:R:3 config_type=qcd dft_energy=-7.34278254 gap_energy=-7.17966677248587 relaxed_gap_energy=-7.209595060299641 energy=-7.209595060299641 free_energy=-7.209595060299641 pbc="T T T"
Cu      10.26166964       8.82161121       7.88017289       0.00004612      -0.00006129       0.00044210
Cu       8.01599100       9.47863070       8.33609140      -0.00004778       0.00037292      -0.00045424
Cu       6.36364225       7.81152179       8.75183956       0.00030863      -0.00021877       0.00039328
Cu       8.61201310       7.15487023       8.30831093      -0.00030697      -0.00009286      -0.00038114
5
Lattice="30.0 0.0 0.0 0.0 30.0 0.0 0.0 0.0 30.0" Properties=species:S:1:pos:R:3:forces:R:3 config_type=qcd dft_energy=-9.84359745 gap_energy=-9.611535044724873 relaxed_gap_energy=-9.631624288799562 energy=-9.631624288799562 free_energy=-9.631624288799562 pbc="T T T"
Cu       9.24176773       8.04774590       8.75041001      -0.00003948      -0.00013144      -0.00013370
Cu      10.49898737      10.01783525       8.40982357       0.00017929       0.00003266       0.00015973
Cu       8.14896348      10.22463059       8.53698584      -0.00011175       0.00010031      -0.00020190
Cu       6.81749080       8.21168312       8.51160587      -0.00009652      -0.00002618       0.00020526
Cu       7.91568283       6.12099734       8.41406690       0.00006846       0.00002465      -0.00002939
6
Lattice="19.765052 0.0 0.0 0.0 19.765052 0.0 0.0 0.0 19.765052" Properties=species:S:1:pos:R:3:forces:R:3 config_type=qcd dft_energy=-12.95538619 gap_energy=-12.139474520040357 relaxed_gap_energy=-12.149474534978133 energy=-12.149474534978133 free_energy=-12.149474534978133 pbc="T T T"
Cu       8.46128529       9.90826617       9.88252600       0.00064267       0.00013972       0.00000000
Cu       8.49213551       7.57128048       9.88252600      -0.00063425      -0.00003982       0.00000000
Cu      10.57073796       8.63940834       9.88252600      -0.00038683      -0.00028946       0.00000000
Cu      10.61486100      11.09964986       9.88252600       0.00064797       0.00025185       0.00000000
Cu       8.57645725      12.24278491       9.88252600      -0.00063846      -0.00038794       0.00000000
Cu      12.57967900       9.83376625       9.88252600       0.00036890       0.00032566       0.00000000
7
Lattice="30.0 0.0 0.0 0.0 30.0 0.0 0.0 0.0 30.0" Properties=species:S:1:pos:R:3:forces:R:3 config_type=qcd dft_energy=-15.99085631 gap_energy=-15.787820205984572 relaxed_gap_energy=-15.820402373230937 energy=-15.820402373230937 free_energy=-15.820402373230937 pbc="T T T"
Cu       7.17240264       6.48375812       6.70655171       0.00029018       0.00024021       0.00036910
Cu       9.23243214       6.37857585       7.87290215      -0.00020088       0.00003627      -0.00003709
Cu       8.52866927       8.44351238       6.89508512      -0.00035367       0.00004146      -0.00045060
Cu       7.33249967       7.39063593       8.91286704      -0.00004841       0.00006866      -0.00018004
Cu       9.49318472       8.39969828       9.08197373       0.00064414      -0.00029209       0.00050628
Cu       7.59451799       9.75383590       8.66310083      -0.00006064       0.00013629       0.00014128
Cu       6.16022460       8.56981520       7.19510570      -0.00027072      -0.00023080      -0.00034892
8
Lattice="30.0 0.0 0.0 0.0 30.0 0.0 0.0 0.0 30.0" Properties=species:S:1:pos:R:3:forces:R:3 config_type=qcd dft_energy=-19.07946519 gap_energy=-18.500633773757947 relaxed_gap_energy=-18.545292534528006 energy=-18.545292534528006 free_energy=-18.545292534528006 pbc="T T T"
Cu      10.85312066      11.55741027       9.63542223       0.00004014       0.00019947      -0.00092167
Cu      10.89799727       9.33906632       8.63267153      -0.00035011       0.00015026       0.00045447
Cu      10.54382128       9.58700397      11.02588251       0.00023926      -0.00046455       0.00005996
Cu      10.10169924       7.45174902       9.94291131      -0.00025673      -0.00004833       0.00078998
Cu       8.78652336       8.26903228       8.07519364       0.00015561       0.00029183      -0.00041896
Cu       8.82941544      11.30983918      10.95061098      -0.00026647      -0.00050768       0.00072721
Cu       8.28325700       9.01870877      10.33306196       0.00050044       0.00026721      -0.00041725
Cu       8.84546534      10.64286940       8.61253990      -0.00006214       0.00011180      -0.00027374
8
Lattice="30.0 0.0 0.0 0.0 30.0 0.0 0.0 0.0 30.0" Properties=species:S:1:pos:R:3:forces:R:3 config_type=qcd dft_energy=-19.04152731 gap_energy=-17.82177379798956 relaxed_gap_energy=-17.84976856523417 energy=-17.84976856523417 free_energy=-17.84976856523417 pbc="T T T"
Cu       9.00926210       9.00926200       9.00926191       0.00032598       0.00032618       0.00032644
Cu       7.27532646       7.27532640       9.00930478       0.00029614       0.00029634      -0.00002850
Cu       9.00930521       7.27532636       7.27532622      -0.00002966       0.00029696       0.00029725
Cu       7.27532638       9.00930521       7.27532617       0.00029694      -0.00002963       0.00029741
Cu       9.52811026       6.75696078       9.52811096      -0.00057777      -0.00027779      -0.00057931
Cu       9.52811078       9.52811089       6.75696085      -0.00057879      -0.00057909      -0.00027792
Cu       6.75696087       9.52811026       9.52811080      -0.00027788      -0.00057770      -0.00057892
Cu       6.75662996       6.75663009       6.75663030       0.00054503       0.00054473       0.00054354
9
Lattice="23.82489614919425 0.0 0.0 0.0 23.82489614919425 0.0 0.0 0.0 23.82489614919425" Properties=species:S:1:pos:R:3:forces:R:3 config_type=qcd dft_energy=-21.43158563 gap_energy=-21.409652396490067 relaxed_gap_energy=-21.466083152651223 energy=-21.466083152651223 free_energy=-21.466083152651223 pbc="T T T"
Cu      12.41980393      11.91244763      12.73538985       0.00082566       0.00000002       0.00027754
Cu      10.50432208      10.71192585      13.50328733      -0.00039863      -0.00024624       0.00038349
Cu      10.50432246      13.11296918      13.50328848      -0.00039875       0.00024628       0.00038352
Cu      11.67871574       9.95968488      11.53338757      -0.00020081       0.00009722      -0.00047569
Cu      10.23476584      11.91244853      11.45674420      -0.00057506       0.00000002       0.00038554
Cu      11.67871623      13.86521173      11.53338942      -0.00020082      -0.00009718      -0.00047559
Cu      13.96629958      13.11303741      11.36881450       0.00013118      -0.00019776       0.00001274
Cu      13.96629927      10.71185883      11.36881327       0.00013128       0.00019767       0.00001281
Cu      12.25878754      11.91244889      10.20891782       0.00068594      -0.00000003      -0.00050435
9
Lattice="30.0 0.0 0.0 0.0 30.0 0.0 0.0 0.0 30.0" Properties=species:S:1:pos:R:3:forces:R:3 config_type=qcd dft_energy=-21.42538807 gap_energy=-21.15687152266922 relaxed_gap_energy=-21.185496882187795 energy=-21.185496882187795 free_energy=-21.185496882187795 pbc="T T T"
Cu       9.87556967      10.10373269      10.39396536      -0.00015241       0.00019171      -0.00029108
Cu       9.19961916      10.50049988       8.06504172       0.00006314       0.00018734       0.00017395
Cu       9.60902106       8.76804561       6.41257465       0.00051465      -0.00012255       0.00049656
Cu      10.68707415       8.64478854       8.58671501      -0.00028102      -0.00002327       0.00006910
Cu       9.43266995       7.69230710      10.47703016      -0.00000831      -0.00005452      -0.00071617
Cu       8.63182718       7.40727540       8.17129349       0.00002325      -0.00026232       0.00074840
Cu       8.22380646       9.21214664      11.92599627       0.00027722      -0.00021145      -0.00025587
Cu       7.74900738       9.21752915       9.55689877       0.00003210       0.00001972      -0.00003429
Cu       7.34682407       9.20909407       7.16590367      -0.00046863       0.00027534      -0.00019062
10
Lattice="19.003095 0.0 0.0 0.0 19.003095 0.0 0.0 0.0 19.003095" Properties=species:S:1:pos:R:3:forces:R:3 config_type=qcd dft_energy=-24.56027617 gap_energy=-24.142568570676215 relaxed_gap_energy=-24.188391396836554 energy=-24.188391396836554 free_energy=-24.188391396836554 pbc="T T T"
Cu       8.66998257       9.50055462      10.77062332      -0.00036554      -0.00000873      -0.00020869
Cu       8.67002245       9.50039936       8.23244270      -0.00036107      -0.00002024       0.00020945
Cu       8.01143397      11.43624415       9.50141688      -0.00052606       0.00052024      -0.00002381
Cu      10.33473199       8.23354471       9.50166031       0.00034334       0.00017699      -0.00000653
Cu      10.33145918      10.77172283       9.50145817       0.00032819      -0.00020406       0.00001711
Cu       6.61945603       9.49780162       9.50150273       0.00085348       0.00002244      -0.00000286
Cu       8.01646974       7.56299359       9.50163085      -0.00056025      -0.00050908       0.00002117
Cu      10.98910689       9.50365470      11.43819774       0.00056664      -0.00004122       0.00052576
Cu      10.98917414       9.50332800       7.56494510       0.00056258      -0.00000431      -0.00052478
Cu      12.38363804       9.50523143       9.50159700      -0.00084131       0.00006796      -0.00000682
11
Lattice="18.93832 0.0 0.0 0.0 18.93832 0.0 0.0 0.0 18.93832" Properties=species:S:1:pos:R:3:forces:R:3 config_type=qcd dft_energy=-27.29859256 gap_energy=-27.102367918182562 relaxed_gap_energy=-27.140758283583335 energy=-27.140758283583335 free_energy=-27.140758283583335 pbc="T T T"
Cu       9.03243038       9.11101327       7.68070979       0.00019145       0.00009940       0.00033455
Cu      10.28817752       8.50346212       9.70488590       0.00048236      -0.00038742      -0.00009912
Cu       8.94751519       9.16808850      11.64811167      -0.00015484       0.00072539      -0.00056669
Cu       6.83281663       9.85801709       8.42265199      -0.00046711       0.00035906      -0.00026842
Cu      11.38947612       8.49313699       7.58327996       0.00020521      -0.00054065      -0.00022923
Cu       6.75732527       9.88512982      10.84639786       0.00065724      -0.00037677       0.00031472
Cu      10.87509818      10.49537799      10.91163924      -0.00008810      -0.00091955      -0.00034126
Cu       7.92622470       8.14369787       9.67519445      -0.00004703      -0.00045706       0.00031042
Cu      10.81841325      10.63578703       8.46992290      -0.00015408       0.00051770       0.00019344
Cu      12.53553830       9.34397693       9.54378146      -0.00055970       0.00039320       0.00049460
Cu       8.75774443      10.52307257       9.67418497      -0.00006541       0.00058670      -0.00014302
12
Lattice="17.897804 0.0 0.0 0.0 17.897804 0.0 0.0 0.0 17.897804" Properties=species:S:1:pos:R:3:forces:R:3 config_type=qcd dft_energy=-30.4425748 gap_energy=-30.041166280138434 relaxed_gap_energy=-30.110787314709306 energy=-30.110787314709306 free_energy=-30.110787314709306 pbc="T T T"
Cu       8.49478233      10.07771858       8.18987308      -0.00064903      -0.00032637      -0.00026603
Cu       8.46464452      10.11994661      10.65202353      -0.00017905      -0.00016574      -0.00028011
Cu      10.66859801      10.09667072       9.45699615      -0.00012209      -0.00047419       0.00011110
Cu       8.03431557       7.82679284       7.40970170       0.00037520      -0.00025912      -0.00016876
Cu      10.37483888       8.69916021       7.39622237      -0.00039678       0.00001664       0.00003300
Cu       6.89331553       8.67545637       9.35451209      -0.00000478       0.00003080       0.00050321
Cu       9.28052245      12.03673413       9.32080421       0.00025383       0.00028822       0.00027208
Cu      10.44642979      11.16955328       7.33362335       0.00040960       0.00012886      -0.00004111
Cu       7.83616724       7.83435842      11.36070128       0.00026266      -0.00016675      -0.00032057
Cu       7.74406896       6.35558827       9.37370560      -0.00015609       0.00005339      -0.00011492
Cu       9.34165218       8.12676922       9.53808784       0.00031372       0.00075079      -0.00016480
Cu       9.80748854       6.36807534       8.00057280      -0.00010720       0.00012349       0.00043690
13
Lattice="30.0 0.0 0.0 0.0 30.0 0.0 0.0 0.0 30.0" Properties=species:S:1:pos:R:3:forces:R:3 config_type=qcd dft_energy=-33.32792427 gap_energy=-33.091915163107636 relaxed_gap_energy=-33.19385322392834 energy=-33.19385322392834 free_energy=-33.19385322392834 pbc="T T T"
Cu       9.54568836       7.56606624       9.13231026       0.00041533      -0.00025702       0.00021733
Cu       7.74161045      10.75886230       7.09287172      -0.00036894      -0.00029921       0.00026085
Cu       5.77486386       9.31719488       6.75556390      -0.00004064      -0.00030592       0.00010177
Cu       9.68743772       9.27344373       7.35078132       0.00060303       0.00017590       0.00025420
Cu       8.97701492       6.94827363       6.87766451      -0.00003434       0.00034442      -0.00056736
Cu       7.92950588       8.80811638       5.71386951      -0.00002507      -0.00021516       0.00004206
Cu       7.42612587       6.30295475       8.83851414      -0.00034995       0.00038846      -0.00012181
Cu       5.49362243       5.26768329       7.85285979       0.00029511       0.00034123       0.00061776
Cu       5.34292037       7.61248318       8.49254361       0.00033792       0.00003684      -0.00017416
Cu       9.54149899       5.22308223       8.46930563      -0.00027989      -0.00012164       0.00023358
Cu       7.54733030       8.62778370       8.21247186      -0.00082928       0.00025639      -0.00035559
Cu       6.54315872       6.97529050       6.50709464       0.00023518       0.00048162      -0.00009960
Cu       7.70245321       4.85281144       6.91836421       0.00004153      -0.00082590      -0.00040902
13
Lattice="18.700798 0.0 0.0 0.0 18.700798 0.0 0.0 0.0 18.700798" Properties=species:S:1:pos:R:3:forces:R:3 config_type=qcd dft_energy=-33.31675514 gap_energy=-33.05495661149409 relaxed_gap_energy=-33.102219185597505 energy=-33.102219185597505 free_energy=-33.102219185597505 pbc="T T T"
Cu       8.64570026       6.89622676       8.03155973       0.00011036       0.00003933      -0.00004723
Cu       6.65060169       9.59044238      10.30558464       0.00007193       0.00008005       0.00006355
Cu       9.56682889       8.57089914       6.49142516       0.00039375       0.00001214      -0.00012454
Cu      10.22775330      11.15398360      11.74863411       0.00024412      -0.00012249      -0.00018188
Cu      10.42037337       8.85706541      11.16889905       0.00030033      -0.00021679      -0.00017089
Cu       8.30307370       9.58951991      12.12062003       0.00014967       0.00034391       0.00018041
Cu      11.68908210       9.63837806       7.29568983      -0.00003962       0.00025667       0.00019954
Cu       9.59581427      10.69920225       7.67240190      -0.00010339       0.00034493       0.00019515
Cu      11.27171844      10.59993924       9.55562678       0.00014192       0.00009177       0.00001626
Cu      10.19555347       8.53972445       8.80135126      -0.00036132      -0.00060266       0.00069595
Cu       8.86676998      10.39619324       9.93806256      -0.00057966      -0.00000809      -0.00078680
Cu       8.34712308       7.89944959      10.26198051      -0.00010373      -0.00013598      -0.00038959
Cu       7.77479423       9.12416278       8.16335166      -0.00022436      -0.00008279       0.00035006
14
Lattice="18.113487 0.0 0.0 0.0 18.113487 0.0 0.0 0.0 18.113487" Properties=species:S:1:pos:R:3:forces:R:3 config_type=qcd dft_energy=-36.68320388 gap_energy=-36.07923495687623 relaxed_gap_energy=-36.14707597415232 energy=-36.14707597415232 free_energy=-36.14707597415232 pbc="T T T"
Cu       9.67109549      10.74553465       8.78700421       0.00073203      -0.00000548       0.00008447
Cu       9.68216553      10.63073473      11.18521002       0.00032473      -0.00012060       0.00019148
Cu      11.79292851      10.67776087       9.94226067      -0.00047138      -0.00033256      -0.00013073
Cu      10.54108859       8.61126740      10.00572516       0.00036782       0.00080540       0.00037290
Cu       9.19491326       8.56905882       7.79047138      -0.00031529       0.00057391      -0.00016411
Cu       8.89565765       6.84171851       9.61090199       0.00014366      -0.00065744       0.00031010
Cu      10.88047394       6.92144885       8.18478085      -0.00047987      -0.00019217      -0.00001191
Cu      11.51802912       9.31146411       7.92729141       0.00043703       0.00043512      -0.00016177
Cu       6.93449453       7.79949029       8.36990890       0.00030678       0.00002570       0.00003191
Cu       8.14844404       9.08813886      10.07378605       0.00014570      -0.00036402       0.00006806
Cu       7.44004474      10.21853331       7.92711216      -0.00050174       0.00049863       0.00023286
Cu       5.86593811       9.66930046       9.62786953       0.00007036      -0.00024420      -0.00072831
Cu       7.61288072      11.41706069      10.05166784      -0.00021797      -0.00030455      -0.00036701
Cu       8.61625476       6.29289746       7.31041880      -0.00054187      -0.00011773       0.00027205
14
Lattice="20.00233 0.0 0.0 0.0 20.00233 0.0 0.0 0.0 20.00233" Properties=species:S:1:pos:R:3:forces:R:3 config_type=qcd dft_energy=-36.66006771 gap_energy=-35.808476433038415 relaxed_gap_energy=-35.914460071311886 energy=-35.914460071311886 free_energy=-35.914460071311886 pbc="T T T"
Cu       9.45269611      11.12869035       9.06713073       0.00041436      -0.00023042      -0.00049005
Cu      11.83959730      11.22386298       9.48593627      -0.00050296       0.00018967      -0.00019988
Cu      11.14093509      10.42587210       7.30615813       0.00010676       0.00036454      -0.00005194
Cu      10.35872461      11.17176187      11.41478532      -0.00005017       0.00049210       0.00070761
Cu       9.64360539       8.83056813      11.41478532       0.00005017      -0.00049210       0.00070761
Cu      11.16378321       9.66806957      13.16455393       0.00017878      -0.00018680      -0.00013167
Cu       8.83854679      10.33426043      13.16455393      -0.00017878       0.00018680      -0.00013167
Cu      12.89245725       9.26586776       8.61612750       0.00031690      -0.00037131      -0.00044245
Cu      10.54963389       8.87363965       9.06713073      -0.00041436       0.00023042      -0.00049005
Cu       8.86139491       9.57645790       7.30615813      -0.00010676      -0.00036454      -0.00005194
Cu      12.05439015       9.29514875      10.95346332       0.00025315      -0.00019883       0.00060839
Cu       8.16273270       8.77846702       9.48593627       0.00050296      -0.00018967      -0.00019988
Cu       7.94793985      10.70718125      10.95346332      -0.00025315       0.00019883       0.00060839
Cu       7.10987275      10.73646224       8.61612750      -0.00031690       0.00037131      -0.00044245
15
Lattice="20.88703769391711 0.0 0.0 0.0 20.88703769391711 0.0 0.0 0.0 20.88703769391711" Properties=species:S:1:pos:R:3:forces:R:3 config_type=qcd dft_energy=-39.38459851 gap_energy=-39.045438357584835 relaxed_gap_energy=-39.13301003264712 energy=-39.13301003264712 free_energy=-39.13301003264712 pbc="T T T"
Cu      11.14005420       9.55253406      12.98389465       0.00030901      -0.00024660       0.00026336
Cu       8.91043439       8.54321254      12.92779347      -0.00008938       0.00033840      -0.00024014
Cu      10.34950741       8.51498679      10.96950705      -0.00070820       0.00002379       0.00024652
Cu       7.89362142       8.99932487      10.75272625      -0.00014380      -0.00000590       0.00029336
Cu      12.82484563       8.92820669      11.25075123       0.00047863      -0.00024813       0.00022339
Cu      11.77033683       9.18036217       9.07596287       0.00008285       0.00015163      -0.00093318
Cu       9.21360982      10.69388711      11.84304813       0.00005403       0.00042545       0.00017220
Cu      11.45361950      10.84976538      10.94038703      -0.00075026       0.00034204      -0.00054228
Cu       9.52920412      10.11304368       9.32299399       0.00031683       0.00000703      -0.00008984
Cu      13.46225056      10.82114137       9.63991417       0.00038604      -0.00010900      -0.00012670
Cu       7.65796735      11.40958891      10.06654529      -0.00001696      -0.00035654      -0.00008182
Cu      11.33379555      11.52191058       8.46247724      -0.00009496      -0.00024001       0.00014241
Cu       9.85873982      12.51746049      10.23212626      -0.00011164      -0.00036548       0.00027950
Cu      12.30277526      12.93734388      10.13576993      -0.00010820       0.00042435       0.00034043
Cu       8.95202084      12.07001418       8.04888515       0.00039601      -0.00014101       0.00005279
15
Lattice="21.07734906375209 0.0 0.0 0.0 21.07734906375209 0.0 0.0 0.0 21.07734906375209" Properties=species:S:1:pos:R:3:forces:R:3 config_type=qcd dft_energy=-39.3669444 gap_energy=-38.90810039645749 relaxed_gap_energy=-38.99583054905016 energy=-38.99583054905016 free_energy=-38.99583054905016 pbc="T T T"
Cu      12.98888055       8.48122147      10.96249851       0.00029994      -0.00021575       0.00000481
Cu      11.20095473       9.22070135       9.49567240      -0.00027338       0.00078053       0.00000310
Cu       9.00559116       7.92613393       9.59687000      -0.00053029      -0.00012083      -0.00027657
Cu      10.69228329       7.72329996      11.34402680       0.00006216      -0.00016567       0.00045710
Cu       9.12527529      10.09224208       8.52260343       0.00021888      -0.00007535      -0.00009199
Cu      12.74830922      10.87360642      10.47515589       0.00041858      -0.00004163      -0.00040519
Cu      10.78166606      11.69639808       9.24310639      -0.00008206      -0.00028621       0.00058889
Cu       7.23841114       9.63668047       9.92113505       0.00041875      -0.00014614      -0.00011804
Cu      12.61972625      11.97326642      12.63023145       0.00074732       0.00052552       0.00035554
Cu       9.35098108       9.80747312      11.09314555      -0.00009425       0.00017245      -0.00036317
Cu      11.48917339       9.83268288      12.29164117      -0.00044260      -0.00024583      -0.00031239
Cu      12.18789675      13.24631262      10.59671023      -0.00049094      -0.00035677      -0.00017763
Cu       9.85412108      13.77409250      10.11753056       0.00009165      -0.00000611      -0.00031809
Cu       8.40783649      11.82489025      10.10823872      -0.00023431       0.00006718      -0.00000433
Cu      10.38901152      11.97111640      11.68155185      -0.00010944       0.00011461       0.00065795
15
Lattice="18.617134 0.0 0.0 0.0 18.617134 0.0 0.0 0.0 18.617134" Properties=species:S:1:pos:R:3:forces:R:3 config_type=qcd dft_energy=-39.33551586 gap_energy=-39.02398636231891 relaxed_gap_energy=-39.09629912376961 energy=-39.09629912376961 free_energy=-39.09629912376961 pbc="T T T"
Cu       8.97832167       9.57934907      11.08603832      -0.00035578       0.00047064       0.00011551
Cu      11.43819133       9.91710057      11.51828098      -0.00009138      -0.00018836      -0.00008621
Cu       7.92101891       7.29848041      11.26374601       0.00022502       0.00003074      -0.00007502
Cu      10.39384083       7.67146149      11.15456067       0.00018024      -0.00026038       0.00012673
Cu       6.88809111       9.07523430       9.91905540      -0.00024115      -0.00031953       0.00027762
Cu       8.93082936       7.80397073       9.16278832      -0.00069137      -0.00026828      -0.00055854
Cu      10.86534840       9.24427938       9.30278975       0.00051387       0.00062064      -0.00046502
Cu       8.58990551      10.32728219       8.75856189      -0.00039502       0.00053134       0.00002644
Cu      12.40386800      11.07287612       9.49401188      -0.00016424      -0.00032844       0.00018563
Cu      10.15826460      11.50996532      10.15572462       0.00036949       0.00012553       0.00031864
Cu      10.64686075      11.12587310       7.70718483      -0.00019629      -0.00007280      -0.00019602
Cu       8.51532342      10.65639993       6.40338163       0.00015396      -0.00021190      -0.00009096
Cu       7.34410164       8.66685254       7.46815364       0.00013421       0.00020113      -0.00017507
Cu       9.82189076       8.82887878       7.15064112       0.00021466      -0.00035344       0.00038495
Cu       6.73264889       6.85050128       9.08358592       0.00034380       0.00002309       0.00021133
16
Lattice="17.708289 0.0 0.0 0.0 17.708289 0.0 0.0 0.0 17.708289" Properties=species:S:1:pos:R:3:forces:R:3 config_type=qcd dft_energy=-42.500035 gap_energy=-42.24738879221458 relaxed_gap_energy=-42.326028219377406 energy=-42.326028219377406 free_energy=-42.326028219377406 pbc="T T T"
Cu       8.75752822       9.34310142       8.09292398      -0.00058825       0.00014626      -0.00016368
Cu       8.76384055       9.44447547      10.57676942       0.00000138      -0.00000596      -0.00014334
Cu      10.97361279       9.37791170       7.08574517       0.00009797      -0.00028589      -0.00014310
Cu      10.64661786       8.10551595       9.22405399       0.00023919       0.00003431       0.00021390
Cu      10.52501272      10.61883974       9.23405893       0.00003940       0.00002524       0.00046933
Cu       8.12260967      11.36161275       9.13409393      -0.00024657       0.00012299      -0.00003412
Cu       6.68556488       9.23655910       9.28539043      -0.00000673      -0.00012330      -0.00000407
Cu       7.10167200       7.68589460      11.18006234      -0.00017724       0.00016493      -0.00000109
Cu       7.16728795       7.83648214       7.12361407      -0.00004082      -0.00016341       0.00009944
Cu       5.94479525       6.97095285       9.09172391       0.00007078      -0.00006934       0.00017158
Cu       8.35250884       7.16700889       9.20235938      -0.00040529      -0.00003499       0.00025385
Cu       8.85464773       9.23774015       5.73144034       0.00033903       0.00011977       0.00008020
Cu       9.62614683       7.31959353       7.06929304       0.00015306       0.00044612      -0.00032063
Cu       9.57895853       7.32431269      11.33387884       0.00025058      -0.00031975       0.00017069
Cu      11.07180545       9.30105433      11.26240682       0.00002996       0.00001202      -0.00052833
Cu       9.49370272      11.33525671       7.03849743       0.00024355      -0.00006900      -0.00012062
16
Lattice="30.0 0.0 0.0 0.0 30.0 0.0 0.0 0.0 30.0" Properties=species:S:1:pos:R:3:forces:R:3 config_type=qcd dft_energy=-42.45660766 gap_energy=-42.0200298208118 relaxed_gap_energy=-42.10755313630111 energy=-42.10755313630111 free_energy=-42.10755313630111 pbc="T T T"
Cu       8.71508240       9.45891236      12.31058557       0.00000296      -0.00019701      -0.00021869
Cu       7.73973978      11.22765925      10.69658871       0.00014650       0.00003458      -0.00001458
Cu       8.39360796      10.64147377       8.38784015      -0.00024647      -0.00013785       0.00006252
Cu       9.60006438      12.39521176       9.45005385      -0.00009465       0.00025422      -0.00024890
Cu       6.11599146      10.27011379       9.10079377       0.00007310      -0.00027556       0.00028188
Cu      11.59076203       8.39566157       7.37562749       0.00003960       0.00018824       0.00065187
Cu       7.31834504       8.65203249       7.68085330      -0.00017881       0.00006761       0.00005730
Cu       9.55411844       8.36243768       8.63804966       0.00059447      -0.00023777      -0.00033354
Cu       9.92876335      10.24636883      10.42383723       0.00063493      -0.00008929      -0.00015361
Cu       9.85199962       7.72608347      10.94182016       0.00024700       0.00010034      -0.00006845
Cu       7.73244926       8.83043273      10.15926961      -0.00043705       0.00008253       0.00007409
Cu      10.83093366      10.58355111       8.19001918       0.00054514      -0.00010684       0.00014872
Cu      11.19962857       9.26204990      12.19904468      -0.00013073       0.00011437      -0.00012666
Cu      11.80061139       8.87240660       9.80253781      -0.00062865       0.00021475       0.00020422
Cu      11.17028963       6.65969534       9.11783022      -0.00034209      -0.00017895      -0.00014763
Cu       9.43704480       9.39534111       6.50468037      -0.00022524       0.00016665      -0.00016853
17
Lattice="25.7697751199003 0.0 0.0 0.0 25.7697751199003 0.0 0.0 0.0 25.7697751199003" Properties=species:S:1:pos:R:3:forces:R:3 config_type=qcd dft_energy=-45.91096676 gap_energy=-45.50465445868362 relaxed_gap_energy=-45.581179501047295 energy=-45.581179501047295 free_energy=-45.581179501047295 pbc="T T T"
Cu      13.37967060      12.74493954      14.73621290      -0.00045108      -0.00032851      -0.00018841
Cu      11.26920831      11.59533236      15.29295789       0.00072065      -0.00020076      -0.00030526