3
Lattice="22.4748374527 0.0 0.0 0.0 22.4748374527 0.0 0.0 0.0 22.4748374527" Properties=species:S:1:pos:R:3:forces:R:3 config_type=qcd dft_energy=-15.48516219 gap_energy=-15.587058599755602 relaxed_gap_energy=-15.68658055444285 energy=-15.68658055444285 free_energy=-15.68658055444285 pbc="T T T"
Fe      12.37411372      11.89564023      10.92583224       0.00043395       0.00025406      -0.00012026
Fe      11.29976248      10.01814266      11.81356761      -0.00012403      -0.00026196       0.00012385
Fe      10.03837998      11.79847328      10.97285634      -0.00030991       0.00000790      -0.00000359
4
Lattice="30.0 0.0 0.0 0.0 30.0 0.0 0.0 0.0 30.0" Properties=species:S:1:pos:R:3:forces:R:3 config_type=qcd dft_energy=-22.29364936 gap_energy=-22.07267162240761 relaxed_gap_energy=-22.37012122913616 energy=-22.37012122913616 free_energy=-22.37012122913616 pbc="T T T"
Fe       9.98083684       8.26356709       8.18360956       0.00015178      -0.00024376      -0.00010975
Fe       7.94284862       9.37866246       7.82056929      -0.00009134       0.00025433      -0.00013964
Fe       9.21714926       9.85302314       9.73889997      -0.00005852       0.00027774       0.00010849
Fe       8.12009030       7.78302418       9.53842679      -0.00000191      -0.00028831       0.00014090
5
Lattice="30.0 0.0 0.0 0.0 30.0 0.0 0.0 0.0 30.0" Properties=species:S:1:pos:R:3:forces:R:3 config_type=qcd dft_energy=-29.3605992 gap_energy=-29.119084920312076 relaxed_gap_energy=-29.2972240822931 energy=-29.2972240822931 free_energy=-29.2972240822931 pbc="T T T"
Fe       7.73777168       6.69586449       8.41581637       0.00055798      -0.00055092       0.00033328
Fe       8.08110388       8.31745838       6.64405732      -0.00039620       0.00038477       0.00016693
Fe       8.20662873       9.01214617       8.96555350       0.00005162       0.00012336      -0.00006678
Fe       9.80683301       7.64203753       8.02072681      -0.00005682      -0.00026808       0.00003625
Fe       6.21023825       8.37506896       7.99642156      -0.00015658       0.00031087      -0.00046968
5
Lattice="24.26772659696839 0.0 0.0 0.0 24.26772659696839 0.0 0.0 0.0 24.26772659696839" Properties=species:S:1:pos:R:3:forces:R:3 config_type=qcd dft_energy=-29.32368541 gap_energy=-29.110120713537356 relaxed_gap_energy=-29.297224311357382 energy=-29.297224311357382 free_energy=-29.297224311357382 pbc="T T T"
Fe      13.53464586      12.13386330      12.13386330       0.00098506       0.00000000       0.00000000
Fe      12.13381450      13.96919192      12.13386330       0.00004157       0.00031952       0.00000000
Fe      12.13381450      10.29853468      12.13386330       0.00004157      -0.00031952       0.00000000
Fe      11.43352081      12.13386330      13.34707005      -0.00053409       0.00000000       0.00040461
Fe      11.43352081      12.13386330      10.92065655      -0.00053409       0.00000000      -0.00040461
6
Lattice="30.0 0.0 0.0 0.0 30.0 0.0 0.0 0.0 30.0" Properties=species:S:1:pos:R:3:forces:R:3 config_type=qcd dft_energy=-36.84698124 gap_energy=-35.83718088971417 relaxed_gap_energy=-35.86847840742285 energy=-35.86847840742285 free_energy=-35.86847840742285 pbc="T T T"
Fe      10.70408260      10.11959978      12.57485252      -0.00002235      -0.00007984       0.00006553
Fe      10.34525569      10.01212381      10.28355514      -0.00014557      -0.00004163      -0.00005612
Fe      12.52305099      10.00202106      11.08820324       0.00003013      -0.00003624      -0.00000327
Fe      11.73080138      12.05912278      11.81694273       0.00011901       0.00019878       0.00010086
Fe      11.37188282      11.95169154       9.52561740       0.00014551       0.00003412      -0.00015835
Fe       9.55300959      12.06932037      11.01227148      -0.00012673      -0.00007518       0.00005136
7
Lattice="30.0 0.0 0.0 0.0 30.0 0.0 0.0 0.0 30.0" Properties=species:S:1:pos:R:3:forces:R:3 config_type=qcd dft_energy=-44.06830177 gap_energy=-43.130441227285 relaxed_gap_energy=-43.264887530818704 energy=-43.264887530818704 free_energy=-43.264887530818704 pbc="T T T"
Fe       8.49499637      10.30824683       7.70863717       0.00004883      -0.00043128       0.00004540
Fe       8.03684459       9.01781108       9.66914526       0.00006596      -0.00008331      -0.00024773
Fe      10.26085032       9.33476378       8.84910366      -0.00013468      -0.00005874      -0.00002088
Fe       6.74428639       8.79094931       7.66996811       0.00013987       0.00019516      -0.00011598
Fe       9.60156816       7.21594760       9.51553247       0.00012960       0.00006117       0.00004339
Fe       8.97520881       7.99417392       7.34283112      -0.00036778       0.00035977       0.00029369
Fe       7.42819166       6.88005377       8.78672848       0.00011820      -0.00004278       0.00000212
8
Lattice="30.0 0.0 0.0 0.0 30.0 0.0 0.0 0.0 30.0" Properties=species:S:1:pos:R:3:forces:R:3 config_type=qcd dft_energy=-51.03694277 gap_energy=-49.71773494761331 relaxed_gap_energy=-49.81410376362584 energy=-49.81410376362584 free_energy=-49.81410376362584 pbc="T T T"
Fe      10.16990597       8.55626237       8.05759814       0.00057968      -0.00000728      -0.00023551
Fe       8.99282603       6.95613145       9.08141575       0.00037541      -0.00026133       0.00030363
Fe       8.44542397       9.44465311       9.43500915      -0.00001201       0.00009920       0.00045537
Fe       6.92354814       7.85233627       9.76808998      -0.00033449       0.00031025      -0.00029438
Fe       7.06514531       6.50951295       7.80768531      -0.00076963      -0.00016655       0.00019766
Fe       8.59498276       9.84332217       7.09696404      -0.00003869       0.00049499      -0.00014234
Fe       6.67931689       8.82918327       7.64098835       0.00009546      -0.00075869       0.00001647
Fe       8.62363480       7.52138787       6.57914456       0.00010426       0.00028942      -0.00030091
9
Lattice="16.091904 0.0 0.0 0.0 16.091904 0.0 0.0 0.0 16.091904" Properties=species:S:1:pos:R:3:forces:R:3 config_type=qcd dft_energy=-57.77518786 gap_energy=-56.873270224339834 relaxed_gap_energy=-56.95296331425388 energy=-56.95296331425388 free_energy=-56.95296331425388 pbc="T T T"
Fe       5.97412255       8.95236133       7.39520180      -0.00031905      -0.00010857      -0.00017708
Fe       6.94110694       6.79963992       7.47162438      -0.00001535      -0.00019033       0.00013175
Fe       7.89817083       8.58728500       6.15270459       0.00003760       0.00003241      -0.00033856
Fe       8.24071155       6.73637389       9.51098126      -0.00008105       0.00000917      -0.00005576
Fe       7.98425098       9.05539228       8.60853286      -0.00031302      -0.00003085       0.00048291
Fe       6.18539656       7.81001731       9.46724624      -0.00005197       0.00018566       0.00005540
Fe       9.84418547       9.30133793       7.19293152       0.00045669       0.00042052      -0.00015381
Fe      10.05536194       8.15959710       9.26533045       0.00031463      -0.00033711      -0.00016884
Fe       9.29026121       7.01156322       7.34901490      -0.00002849       0.00001910       0.00022400
10
Lattice="24.93862583120363 0.0 0.0 0.0 24.93862583120363 0.0 0.0 0.0 24.93862583120363" Properties=species:S:1:pos:R:3:forces:R:3 config_type=qcd dft_energy=-64.73364904 gap_energy=-63.898301218148845 relaxed_gap_energy=-63.99167607894471 energy=-63.99167607894471 free_energy=-63.99167607894471 pbc="T T T"
Fe      14.22202714      12.68545855      11.75083626      -0.00017450      -0.00015100       0.00004234
Fe      11.42322515      12.46817737      14.47100142       0.00001690       0.00003835      -0.00000663
Fe      12.54382271      14.36511278      11.24423921       0.00016206       0.00085137      -0.00041501
Fe      13.53303750      11.51937618      13.73430687       0.00031309      -0.00039603       0.00040299
Fe      12.63362050      12.30028151      10.07413536       0.00012846      -0.00005014       0.00027044
Fe      13.16273639      13.88465377      13.54217349      -0.00027595      -0.00027071      -0.00013241
Fe      11.58959377      12.29853386      12.06337728      -0.00066634      -0.00017351      -0.00011851
Fe      11.51891909      10.41356759      13.28351145       0.00043798       0.00009735       0.00002557
Fe      13.14654397      10.51737272      11.55695035      -0.00017900       0.00019109       0.00002009
Fe      10.91960293      14.24059483      12.97259746       0.00023729      -0.00013677      -0.00008888
11
Lattice="24.9614315349069 0.0 0.0 0.0 24.9614315349069 0.0 0.0 0.0 24.9614315349069" Properties=species:S:1:pos:R:3:forces:R:3 config_type=qcd dft_energy=-71.84076561 gap_energy=-70.83613713111743 relaxed_gap_energy=-71.0313868840255 energy=-71.0313868840255 free_energy=-71.0313868840255 pbc="T T T"
Fe      11.73522593      11.45898689      10.51463318       0.00006964       0.00013849      -0.00023027
Fe      14.94873754      12.04667137      12.77790824      -0.00007299       0.00029907       0.00037934
Fe      11.46605174      13.00642954      14.12277470       0.00030599      -0.00000539      -0.00013876
Fe      10.41556998      13.03198610      11.93129895       0.00024000       0.00019475      -0.00000930
Fe      13.21778845      11.32388163      14.20956889      -0.00002511       0.00005476       0.00018574
Fe      12.02228792      13.83098277      10.39878981      -0.00047769      -0.00014476       0.00019419
Fe      13.76183590      13.74670081      13.97106777       0.00002027      -0.00012011      -0.00024855
Fe      12.96487337      12.70144207      12.05068994      -0.00002905       0.00038748       0.00048877
Fe      11.25837101      10.93506398      12.82538318      -0.00037138      -0.00007748       0.00001292
Fe      13.42866601      10.42658345      11.89136290       0.00017293      -0.00037672      -0.00035633
Fe      12.06846559      14.77914485      12.59439587       0.00016739      -0.00035009      -0.00027775
12
Lattice="30.0 0.0 0.0 0.0 30.0 0.0 0.0 0.0 30.0" Properties=species:S:1:pos:R:3:forces:R:3 config_type=qcd dft_energy=-79.10792548 gap_energy=-78.19329182802592 relaxed_gap_energy=-78.53279971237463 energy=-78.53279971237463 free_energy=-78.53279971237463 pbc="T T T"
Fe       7.78086273       7.20702617       7.05392498       0.00014462      -0.00033711       0.00012240
Fe       6.41993392       9.25100723       8.26919399       0.00013161       0.00039021       0.00059457
Fe      10.06202848       7.86088149       6.98650839       0.00067904       0.00007110       0.00028391
Fe       7.25100806       9.12408483      10.51805211      -0.00026618       0.00025293      -0.00016270
Fe      10.52062547      10.16541953       8.40509707      -0.00042645      -0.00039092      -0.00058606
Fe      11.01631831       8.13925013       9.47265638       0.00033389       0.00029911      -0.00022639
Fe       9.81058111       9.78475825      10.62048639       0.00028249      -0.00050959       0.00029757
Fe       8.23603723       9.90750838       6.91474909       0.00009321       0.00027332       0.00055330
Fe       7.11805896       6.95183612       9.38959460       0.00027428       0.00070578      -0.00050546
Fe       9.31737193       6.32118007       8.61748544      -0.00045715       0.00038372       0.00039563
Fe       7.96192573      10.90272080       9.02749617      -0.00072367      -0.00036734      -0.00017588
Fe       8.73181192       8.53099599       8.94342107      -0.00006568      -0.00077121      -0.00059087
13
Lattice="24.6881749018 0.0 0.0 0.0 24.6881749018 0.0 0.0 0.0 24.6881749018" Properties=species:S:1:pos:R:3:forces:R:3 config_type=qcd dft_energy=-86.68254412 gap_energy=-85.82805936487536 relaxed_gap_energy=-86.08096621247493 energy=-86.08096621247493 free_energy=-86.08096621247493 pbc="T T T"
Fe      11.06055726      12.68413758      14.37388566       0.00025024      -0.00035537      -0.00045901
Fe      12.36648115      10.03030412      11.73390130      -0.00011667       0.00026046      -0.00000737
Fe      14.62598156      11.43975744      12.37678182      -0.00015524       0.00020068       0.00006108
Fe      12.69393795      10.59495890      13.99952883       0.00049864      -0.00010061      -0.00002426
Fe      13.62761897      12.00403758      10.31428924      -0.00026383       0.00035262       0.00046415
Fe      10.06219342      13.24841632      12.31139237       0.00014748      -0.00018742      -0.00005444
Fe      11.99423760      14.09321651      10.68864629      -0.00049705       0.00010092       0.00002595
Fe      13.78798271      12.71288697      14.20043441      -0.00031163       0.00024958      -0.00007697
Fe      10.47243733      10.88532986      12.92666792      -0.00091835       0.00020827       0.00017584
Fe      14.21573784      13.80284545      11.76150663       0.00091244      -0.00021503      -0.00017348
Fe      12.32169410      14.65787071      12.95427436       0.00011468      -0.00025844      -0.00000359
Fe      12.34408648      12.34408718      12.34408676       0.00001270       0.00000342       0.00000686
Fe      10.90019048      11.97528826      10.48774125       0.00032657      -0.00025906       0.00006524
14
Lattice="24.96484459512574 0.0 0.0 0.0 24.96484459512574 0.0 0.0 0.0 24.96484459512574" Properties=species:S:1:pos:R:3:forces:R:3 config_type=qcd dft_energy=-93.90424325 gap_energy=-92.6745119454733 relaxed_gap_energy=-92.80507251293709 energy=-92.80507251293709 free_energy=-92.80507251293709 pbc="T T T"
Fe      11.83629608      10.32873010      11.46439655      -0.00007025      -0.00018786       0.00017218
Fe      11.63139255      10.65992574      13.82956481       0.00006654       0.00030960      -0.00044332
Fe      13.84539866      10.39567618      12.80097168      -0.00040140      -0.00002102      -0.00012384
Fe      11.34852207      12.89978148      14.63494060       0.00042686      -0.00033492       0.00002441
Fe      13.55545752      11.92250276      14.68439944       0.00007509       0.00043456      -0.00016150
Fe      10.20256596      12.35441559      12.23596812       0.00034580       0.00021919      -0.00038733
Fe      13.52248535      14.20803207      13.90808922       0.00027971       0.00011826       0.00012795
Fe      12.47254589      12.49317995      12.47218477      -0.00008544      -0.00018430       0.00011873
Fe      11.36123880      14.68800058      13.09957282       0.00000580      -0.00019961      -0.00010201
Fe      14.88557138      12.61866644      12.74120774      -0.00053717       0.00014852       0.00011588
Fe      11.83254697      12.20100709      10.03277397      -0.00010445       0.00023616       0.00000411
Fe      13.28838976      14.21175101      11.20385941      -0.00038032       0.00011322       0.00009454
Fe      14.00996813      11.63742256      10.73724677       0.00025153      -0.00034748       0.00028639
Fe      10.96153307      14.13482062      10.90873625       0.00012768      -0.00030433       0.00027379
15
Lattice="30.0 0.0 0.0 0.0 30.0 0.0 0.0 0.0 30.0" Properties=species:S:1:pos:R:3:forces:R:3 config_type=qcd dft_energy=-102.0619491 gap_energy=-100.1283208120681 relaxed_gap_energy=-100.34234000754734 energy=-100.34234000754734 free_energy=-100.34234000754734 pbc="T T T"
Fe       8.92594732      10.64936548       7.47363559      -0.00000420      -0.00028322      -0.00006570
Fe       8.06324866      11.41860551       9.67304578       0.00039787       0.00021789      -0.00026896
Fe       6.65652180       9.78052255       8.71696014      -0.00039652       0.00004764      -0.00032071
Fe      10.38897388      11.38376811       9.33600068       0.00040054       0.00023019      -0.00008100
Fe      11.43689505       9.71945452       8.03929194       0.00011456       0.00057262      -0.00044256
Fe      10.02425465       8.16695803       6.97018429      -0.00024089       0.00003008       0.00051927
Fe       7.67803200       8.19224939       7.29860871       0.00021312       0.00020332      -0.00008096
Fe       7.38842281       9.49025009      10.98085998      -0.00033127      -0.00019861       0.00039122
Fe       9.14531270       9.14684121       9.15907765      -0.00029228      -0.00041157      -0.00021053
Fe      11.14416034       7.53975569       9.02875463      -0.00034624      -0.00031748      -0.00026981
Fe       7.15754708       7.59726013       9.57509869       0.00020412      -0.00053737      -0.00001607
Fe      11.35911811       9.41610063      10.42760843       0.00033323      -0.00003038       0.00023277
Fe       9.48708550      10.48274000      11.37981634      -0.00001698       0.00026387       0.00044649
Fe       9.55883723       7.78496582      10.92564584      -0.00015178      -0.00012999       0.00001952
Fe       9.02914167       6.62503736       8.51210069       0.00011672       0.00034301       0.00014702
16
Lattice="25.02719019269599 0.0 0.0 0.0 25.02719019269599 0.0 0.0 0.0 25.02719019269599" Properties=species:S:1:pos:R:3:forces:R:3 config_type=qcd dft_energy=-109.31864496 gap_energy=-106.936103375881 relaxed_gap_energy=-107.03109924399286 energy=-107.03109924399286 free_energy=-107.03109924399286 pbc="T T T"
Fe      12.52765458      12.51560211      12.53065416       0.00137837       0.00173061       0.00407337
Fe      14.30875887      11.24029746      13.36918574      -0.00291649       0.00086924      -0.00270097
Fe      11.58045377      14.35900838      13.63064809       0.00398166      -0.00225194       0.00096481
Fe      11.59075847      11.95396435      10.45256887      -0.00078548       0.00017865       0.00111317
Fe      14.18998207      11.27949021      10.90160729      -0.00167704      -0.00268714       0.00123959
Fe      14.17899404      13.86496017      14.08366726      -0.00169645      -0.00142607       0.00164831
Fe      15.03870057      13.15543317      12.03236148      -0.00004158       0.00212910      -0.00076054
Fe      13.48932937      13.44707642      10.24253173       0.00232419       0.00159094      -0.00069660
Fe      13.41937329      14.93498993      12.12860504       0.00031156      -0.00120321      -0.00036630
Fe      11.45612794      14.39412703      10.94863628      -0.00310612      -0.00161028      -0.00086725
Fe      12.70650753      12.44914689      15.17045163       0.00095748       0.00200804      -0.00085624
Fe      12.61508462       9.90075569      11.87179326       0.00205777       0.00094808      -0.00094708
Fe       9.94631254      13.15415998      12.18578766       0.00049120       0.00166010      -0.00268018
Fe      12.11264946      10.45403067      14.07674917      -0.00201129       0.00061846      -0.00087744
Fe      10.54987058      12.25555184      14.26708348      -0.00067049      -0.00175382      -0.00062934
Fe      10.50696381      10.85892726      12.32519042       0.00140271      -0.00080075       0.00234270
17
Lattice="17.84092238668683 0.0 0.0 0.0 17.84092238668683 0.0 0.0 0.0 17.84092238668683" Properties=species:S:1:pos:R:3:forces:R:3 config_type=qcd dft_energy=-116.49638879 gap_energy=-113.62678295015304 relaxed_gap_energy=-113.78896789444074 energy=-113.78896789444074 free_energy=-113.78896789444074 pbc="T T T"
Fe      10.08038397       8.00870907       6.62990447      -0.00021774      -0.00013445       0.00008376
Fe       8.38252056       9.57715410       6.28073713      -0.00014364       0.00039113       0.00024223
Fe       8.49566680      11.28111805       7.87990135       0.00000710      -0.00027429      -0.00001749
Fe      10.56270376      10.10825603       7.70559640      -0.00005253       0.00047655      -0.00041149
Fe       7.75557696       7.55362944       7.40796232      -0.00045379       0.00013504       0.00004048
Fe       6.57957452       9.92169099       7.79526022       0.00037619      -0.00026088      -0.00038408
Fe       9.66004566       6.38626466       8.29769032       0.00002175      -0.00003534       0.00019500
Fe      11.41457131       7.92196631       8.57403460       0.00013126       0.00015195      -0.00020408
Fe      11.33715037       9.79946252       9.95441210       0.00028440      -0.00075540       0.00022743
Fe       6.37838047       8.15366284       9.25968775       0.00034367      -0.00039643      -0.00038759
Fe       9.62048962      11.45091604       9.86170882      -0.00051330      -0.00023433       0.00041025
Fe       7.94118479       6.50307468       9.86856326      -0.00022849      -0.00033238       0.00028434
Fe      10.02462855       7.51724383      10.50241594      -0.00032921       0.00040941      -0.00008649
Fe       8.91165985       8.93684215       8.95779690       0.00017290       0.00009109      -0.00027476
Fe       7.40784423      10.45315975      10.00280704       0.00025556       0.00078141      -0.00041155
Fe       7.58568140       8.39827346      11.26059334       0.00036571      -0.00042386       0.00044163
Fe       9.50977748       9.67641636      11.40876828      -0.00001980       0.00041081       0.00025242
18
Lattice="20.08353941929223 0.0 0.0 0.0 20.08353941929223 0.0 0.0 0.0 20.08353941929223" Properties=species:S:1:pos:R:3:forces:R:3 config_type=qcd dft_energy=-123.60905633 gap_energy=-120.11927359878389 relaxed_gap_energy=-120.57412383352076 energy=-120.57412383352076 free_energy=-120.57412383352076 pbc="T T T"
Fe      12.60238560       9.39566858      11.04370705       0.00010902      -0.00068039       0.00041512
Fe       8.29520978       9.40580259       8.50563828      -0.00035935       0.00004333      -0.00005834
Fe      11.09367742      10.00575418      12.72429964       0.00017620      -0.00002663      -0.00007252
Fe       9.61336518      11.63797019      12.00454779       0.00014974       0.00014073       0.00014652
Fe      10.15384489      10.67330319       7.15009266       0.00034273       0.00061720      -0.00012981
Fe      10.25893098       8.15581838      11.47760326      -0.00030603      -0.00034849       0.00014868
Fe       9.52252655      12.95133476      10.23758529      -0.00038512      -0.00023512       0.00000581
Fe       9.30765881       7.31606655       9.46173471      -0.00018522       0.00030970       0.00024773
Fe      10.03722900      10.08006025      10.01262176       0.00077199       0.00034346      -0.00031914
Fe      11.68205273      11.59986931      10.87582852      -0.00023230       0.00042456      -0.00019763
Fe       8.67649430       9.58565465      12.53837096       0.00019444       0.00003196      -0.00017905
Fe       7.72736674       8.54885819      10.66828193       0.00021292      -0.00018879       0.00047545
Fe       8.59781362      11.79842910       8.45056002       0.00036559      -0.00027371      -0.00019241
Fe       7.86940168      10.93785907      10.58277055      -0.00038271       0.00006960      -0.00023366
Fe      10.44788480       8.63533936       7.93448526       0.00022281      -0.00041298       0.00003042
Fe      11.72486672       7.73606498       9.64780622      -0.00021899      -0.00017178       0.00000412
Fe      12.10791921      10.06740241       8.79902601      -0.00025931       0.00058689      -0.00047270
Fe      11.03322677      12.22059904       8.63689486      -0.00021641      -0.00022953       0.00038139
19
Lattice="27.41517555156768 0.0 0.0 0.0 27.41517555156768 0.0 0.0 0.0 27.41517555156768" Properties=species:S:1:pos:R:3:forces:R:3 config_type=qcd dft_energy=-130.40729458 gap_energy=-128.64004383219537 relaxed_gap_energy=-128.95349700554024 energy=-128.95349700554024 free_energy=-128.95349700554024 pbc="T T T"
Fe      13.69632418      13.70651242      14.81125476      -0.00060335      -0.00054886      -0.00003175
Fe      13.77439953      13.56605744      17.20937966       0.00003582       0.00009096      -0.00016098
Fe      14.35838003      11.62794236      15.92147088      -0.00000621       0.00010519      -0.00038819
Fe      12.07297806      12.38931856      15.89489841       0.00043308       0.00012873      -0.00018589
Fe      12.05531206      15.14266021      15.82776402      -0.00028080       0.00005765      -0.00010277
Fe      14.30059118      15.86699614      15.79456285      -0.00013980       0.00022342       0.00022675
Fe      15.78356200      13.56568310      15.95693564       0.00010015       0.00048339       0.00025172
Fe      13.07460251      11.57975701      13.78803558       0.00000137       0.00072376      -0.00018305
Fe      11.43678381      13.72981659      13.59330607       0.00055493      -0.00049983       0.00002495
Fe      13.04581561      15.90215789      13.72980028       0.00034546       0.00053224       0.00022902
Fe      15.41149358      15.09191221      13.73948885       0.00050693      -0.00058239       0.00035668
Fe      15.46135601      12.29870554      13.54066459      -0.00019564      -0.00030468       0.00002669
Fe      13.69260060      13.70846613      12.61190444      -0.00023379      -0.00012084       0.00022274
Fe      13.89967568      13.66094685      10.21385935       0.00007405      -0.00030488      -0.00018967
Fe      11.82032183      12.54185916      11.57025659       0.00010343       0.00000105      -0.00013505
Fe      14.43292316      11.69398840      11.43612133      -0.00039207      -0.00008980      -0.00026099
Fe      11.84524578      14.89073976      11.55049707      -0.00019729      -0.00028531       0.00036228
Fe      14.40402443      15.88273834      11.73656705      -0.00010434       0.00020002      -0.00025887
Fe      15.87777770      13.59790963      11.51740035      -0.00000194       0.00019019       0.00019637
20
Lattice="20.73555790281353 0.0 0.0 0.0 20.73555790281353 0.0 0.0 0.0 20.73555790281353" Properties=species:S:1:pos:R:3:forces:R:3 config_type=qcd dft_energy=-137.82088832 gap_energy=-135.29374641452324 relaxed_gap_energy=-135.58802954500317 energy=-135.58802954500317 free_energy=-135.58802954500317 pbc="T T T"
Fe      10.84218486      11.13659418       7.56375531      -0.00034281       0.00002825       0.00003578
Fe       9.14327060       9.81598110       8.69543513       0.00021903       0.00024537       0.00072510
Fe      11.27552908       8.83819383       8.05015927       0.00005621       0.00006469      -0.00067805
Fe      11.80293805      12.70494343       9.05188810       0.00002158      -0.00023558       0.00026702
Fe      13.14391867      10.68269021       8.84082169      -0.00016254       0.00010786       0.00035773
Fe      11.25004142      10.45541417      10.06019207       0.00003968      -0.00008064      -0.00016037
Fe      12.53963648       8.25054886       9.97038876       0.00012445      -0.00021599      -0.00006039
Fe       7.23935948      10.94371833       9.84228854       0.00053456      -0.00000128      -0.00020731
Fe       9.41469526      12.09264931       9.28755829      -0.00004786      -0.00021301      -0.00010674
Fe      10.10718513       8.13979949      10.06420034      -0.00030286       0.00010384      -0.00002807
Fe       7.63655444       8.63903299      10.30228681       0.00023102       0.00019905       0.00011667
Fe       8.00717967      12.30755074      11.56017775      -0.00006993       0.00043449      -0.00024234
Fe      10.59719344      12.66986070      11.22037126      -0.00009145       0.00011470      -0.00017338
Fe      12.95412501      12.18020815      11.04250411      -0.00018825       0.00011618       0.00013961
Fe      11.28173398       8.75218781      11.99952563      -0.00019693      -0.00014766       0.00030821
Fe       7.20027318      10.15567689      12.15692090      -0.00004228       0.00007586       0.00037098
Fe       8.70970085       8.32813387      12.34262428       0.00012154      -0.00042766       0.00013891
Fe      11.50312655      11.00357070      12.58223829       0.00004419       0.00015943      -0.00004080
Fe       9.36609139      10.36093198      11.25907761       0.00020206      -0.00039955      -0.00066092
Fe      13.34084148       9.89789230      11.46316486      -0.00014941       0.00007166      -0.00010164
21
Lattice="19.9911249761095 0.0 0.0 0.0 19.9911249761095 0.0 0.0 0.0 19.9911249761095" Properties=species:S:1:pos:R:3:forces:R:3 config_type=qcd dft_energy=-145.32721509 gap_energy=-142.73269787156536 relaxed_gap_energy=-143.05944555017456 energy=-143.05944555017456 free_energy=-143.05944555017456 pbc="T T T"
Fe       7.27361932      10.35116644       8.53304393       0.00011409       0.00019038       0.00001883
Fe       6.89155495       9.50633495      11.04918864      -0.00026221      -0.00025712       0.00018540
Fe       7.75080348       8.12800899       9.24309077      -0.00033254       0.00037577       0.00043380
Fe       9.34333313      11.69165346       8.54170416       0.00022075      -0.00023051      -0.00051930
Fe       7.51114338      12.02051466      10.16642581      -0.00070531       0.00001803      -0.00016803
Fe       9.39571207       9.39853181       7.90696003      -0.00018378      -0.00028000      -0.00045290
Fe      10.18729059       7.80578883       9.49864645      -0.00029423      -0.00027689      -0.00010565
Fe       9.02160476       9.95332588      10.43760266       0.00036959      -0.00021914       0.00001636
Fe       8.67659568       7.52795872      11.35429395       0.00023378       0.00045060      -0.00000197
Fe       8.27374255      11.48950886      12.34657754      -0.00029293      -0.00013673       0.00046567
Fe      11.83982086       8.63822602       7.72059490       0.00031897      -0.00009899      -0.00028541
Fe      10.88047027       8.59845388      11.63282804       0.00021288      -0.00029647      -0.00004142
Fe       8.87779446       9.26948636      12.91550000       0.00005374      -0.00012370      -0.00003553
Fe      11.07179399      10.16992102       9.63484017      -0.00079865      -0.00005980       0.00038983
Fe      10.60852460      10.81695213      12.27110789       0.00032148       0.00047244      -0.00006297
Fe       9.83112462      12.38185193      10.70722990       0.00015154       0.00035567      -0.00037585
Fe      12.00049835      12.24780503       9.14056224      -0.00001607       0.00072087       0.00029280