3
Lattice="15.55901254579841 0.0 0.0 0.0 15.55901254579841 0.0 0.0 0.0 15.55901254579841" Properties=species:S:1:pos:R:3:forces:R:3 config_type=qcd dft_energy=-4.32213668 gap_energy=-4.997647606706756 relaxed_gap_energy=-5.3044501822154535 energy=-5.3044501822154535 free_energy=-5.3044501822154535 pbc="T T T"
Ga       8.84864947       8.91140375       8.02248017      -0.00048331       0.00023068      -0.00000350
Ga       6.24743842       8.14315054       7.71575087       0.00065004       0.00010083       0.00006359
Ga       8.24243094       6.28396452       7.60028779      -0.00016674      -0.00033151      -0.00006009
3
Lattice="14.5007262 0.0 0.0 0.0 14.5007262 0.0 0.0 0.0 14.5007262" Properties=species:S:1:pos:R:3:forces:R:3 config_type=qcd dft_energy=-4.32154392 gap_energy=-5.040553067453664 relaxed_gap_energy=-5.304450247778255 energy=-5.304450247778255 free_energy=-5.304450247778255 pbc="T T T"
Ga       8.03828171       5.88563087       7.25036310      -0.00004784       0.00018449       0.00000000
Ga       8.03828171       8.61509533       7.25036310      -0.00004784      -0.00018449       0.00000000
Ga       5.67452588       7.25036310       7.25036310       0.00009568      -0.00000000       0.00000000
4
Lattice="16.0583038 0.0 0.0 0.0 16.0583038 0.0 0.0 0.0 16.0583038" Properties=species:S:1:pos:R:3:forces:R:3 config_type=qcd dft_energy=-6.93070171 gap_energy=-7.414809452601966 relaxed_gap_energy=-7.416618129345019 energy=-7.416618129345019 free_energy=-7.416618129345019 pbc="T T T"
Ga       8.02915190       9.88792006       8.02915190       0.00000000       0.00077440       0.00000000
Ga       8.02915190       6.17038374       8.02915190       0.00000000      -0.00077440       0.00000000
Ga       6.16904119       8.02915190       8.02915190       0.00027404      -0.00000000       0.00000000
Ga       9.88926261       8.02915190       8.02915190      -0.00027404      -0.00000000       0.00000000
5
Lattice="16.91300276403841 0.0 0.0 0.0 16.91300276403841 0.0 0.0 0.0 16.91300276403841" Properties=species:S:1:pos:R:3:forces:R:3 config_type=qcd dft_energy=-9.37571872 gap_energy=-9.616991868442692 relaxed_gap_energy=-9.702112658488016 energy=-9.702112658488016 free_energy=-9.702112658488016 pbc="T T T"
Ga       9.98729593       8.35114948       8.91609364       0.00030215       0.00079652       0.00030257
Ga       9.43809706       6.54335548       6.98242525      -0.00044284      -0.00028562      -0.00020298
Ga       8.82309672      10.67818995       8.81527619      -0.00043866      -0.00040665       0.00016744
Ga       7.56882652       7.17666765       8.83009660       0.00002153      -0.00052881      -0.00005197
Ga       6.46519068       9.53314436       8.73861523       0.00055783       0.00042456      -0.00021505
5
Lattice="17.52917941012446 0.0 0.0 0.0 17.52917941012446 0.0 0.0 0.0 17.52917941012446" Properties=species:S:1:pos:R:3:forces:R:3 config_type=qcd dft_energy=-9.37059456 gap_energy=-9.524336817401586 relaxed_gap_energy=-9.70211344686474 energy=-9.70211344686474 free_energy=-9.70211344686474 pbc="T T T"
Ga      10.70613970       8.11180957       7.76248859       0.00017456       0.00014999       0.00011295
Ga      10.41637824      10.26718423       9.22767445      -0.00025989      -0.00026245      -0.00021479
Ga       7.82691045       9.99842350       9.17064986       0.00011581      -0.00027578       0.00001131
Ga       8.12435266       7.78633084       7.66892143      -0.00006263       0.00024023       0.00013702
Ga       6.74916749       7.65920038       9.99321420       0.00003215       0.00014802      -0.00004649
5
Lattice="18.53214109441171 0.0 0.0 0.0 18.53214109441171 0.0 0.0 0.0 18.53214109441171" Properties=species:S:1:pos:R:3:forces:R:3 config_type=qcd dft_energy=-9.35563702 gap_energy=-9.600122818368742 relaxed_gap_energy=-10.367036146311971 energy=-10.367036146311971 free_energy=-10.367036146311971 pbc="T T T"
Ga       8.90990172       9.52492164      10.69174520       0.00028743      -0.00043612      -0.00041539
Ga       6.65253691       9.99671401       9.13377240      -0.00026082       0.00000046       0.00012583
Ga       8.96219050       9.18993777       7.80762814      -0.00027015      -0.00020141      -0.00021431
Ga      11.28819542      10.16573687       9.19807901       0.00065147       0.00028219       0.00023896
Ga      10.51752818       7.45304245       9.49912798      -0.00040792       0.00035489       0.00026490
5
Lattice="30.0 0.0 0.0 0.0 30.0 0.0 0.0 0.0 30.0" Properties=species:S:1:pos:R:3:forces:R:3 config_type=qcd dft_energy=-9.34118223 gap_energy=-9.541493093903096 relaxed_gap_energy=-9.955765062838832 energy=-9.955765062838832 free_energy=-9.955765062838832 pbc="T T T"
Ga       7.31133266       7.07210296       4.45424290      -0.00012243      -0.00014498       0.00020943
Ga       7.68063502       8.32474896       8.99280232       0.00005616      -0.00000659       0.00014177
Ga       6.67340677       6.62801853       7.03440263       0.00004584      -0.00023433      -0.00023054
Ga       7.87122932       9.02968317       6.30945298       0.00007551       0.00028613      -0.00001109
Ga       6.95636475       5.72788427       9.55845215      -0.00005508       0.00009977      -0.00010957
5
Lattice="16.86627403393367 0.0 0.0 0.0 16.86627403393367 0.0 0.0 0.0 16.86627403393367" Properties=species:S:1:pos:R:3:forces:R:3 config_type=qcd dft_energy=-9.33142789 gap_energy=-9.624114047216136 relaxed_gap_energy=-9.955761810999814 energy=-9.955761810999814 free_energy=-9.955761810999814 pbc="T T T"
Ga       6.94991279       9.27396463       9.49981297      -0.00043003       0.00019222      -0.00044720
Ga       7.81035354       9.53787957       6.86858591      -0.00033966       0.00051518       0.00021329
Ga       8.89621910       7.56211714       8.49515359      -0.00012009      -0.00034634       0.00066069
Ga      10.08935764       8.16486122       6.15548121       0.00035612      -0.00023750      -0.00008378
Ga       8.41984201       7.62686251      11.14665139       0.00053366      -0.00012356      -0.00034300
5
Lattice="16.67772915582187 0.0 0.0 0.0 16.67772915582187 0.0 0.0 0.0 16.67772915582187" Properties=species:S:1:pos:R:3:forces:R:3 config_type=qcd dft_energy=-9.33012493 gap_energy=-9.665943410103846 relaxed_gap_energy=-9.771086779923149 energy=-9.771086779923149 free_energy=-9.771086779923149 pbc="T T T"
Ga      10.64905516       8.93523640       7.97183019       0.00004398       0.00001098       0.00002128
Ga       8.44706059       9.44166075       9.25631433       0.00000857      -0.00000237       0.00003262
Ga       9.46507450       6.95978255       6.70879491      -0.00004987       0.00003656      -0.00009635
Ga       7.25723304       7.45830186       7.98632865       0.00006325      -0.00011998       0.00008446
Ga       5.87589959       8.89934134       9.77105480      -0.00006593       0.00007481      -0.00004201
6
Lattice="30.0 0.0 0.0 0.0 30.0 0.0 0.0 0.0 30.0" Properties=species:S:1:pos:R:3:forces:R:3 config_type=qcd dft_energy=-12.43131534 gap_energy=-12.51258645010263 relaxed_gap_energy=-12.563087446588112 energy=-12.563087446588112 free_energy=-12.563087446588112 pbc="T T T"
Ga       7.80562240       9.36639313       9.30892601       0.00003357      -0.00090579       0.00001946
Ga       9.38803762       7.16677053       9.09751397      -0.00047300       0.00034724       0.00022788
Ga       6.68689850       6.89090028       9.22497264       0.00047703       0.00053442       0.00006342
Ga       9.24455408       7.32822289       6.45384346       0.00047791      -0.00007189      -0.00018845
Ga       6.54427975       7.05153022       6.58116596      -0.00011682       0.00066448      -0.00002874
Ga       7.66223325       9.52780854       6.66520355      -0.00039869      -0.00056846      -0.00009356
6
Lattice="15.3710440775703 0.0 0.0 0.0 15.3710440775703 0.0 0.0 0.0 15.3710440775703" Properties=species:S:1:pos:R:3:forces:R:3 config_type=qcd dft_energy=-12.42136245 gap_energy=-12.011752268504791 relaxed_gap_energy=-12.5630875100435 energy=-12.5630875100435 free_energy=-12.5630875100435 pbc="T T T"
Ga       6.93103130       8.89781011       6.21261521       0.00009538      -0.00005237       0.00084578
Ga       8.31346887       6.64160356       6.02714014      -0.00028183      -0.00009563      -0.00006660
Ga       5.86822701       8.06163380       8.57013378       0.00033622       0.00012268      -0.00046291
Ga       7.24917416       5.80456812       8.38388822       0.00008249       0.00015155      -0.00013905
Ga       8.18533258       9.48252713       8.55181344      -0.00017946      -0.00045629      -0.00043587
Ga       9.56589830       7.22498953       8.36754145      -0.00005280       0.00033006       0.00025865
7
Lattice="17.66582284373864 0.0 0.0 0.0 17.66582284373864 0.0 0.0 0.0 17.66582284373864" Properties=species:S:1:pos:R:3:forces:R:3 config_type=qcd dft_energy=-15.49976312 gap_energy=-14.9551319714286 relaxed_gap_energy=-16.13824569968942 energy=-16.13824569968942 free_energy=-16.13824569968942 pbc="T T T"
Ga       6.95298831      10.46196505       9.17148589       0.00009164      -0.00026135      -0.00004644
Ga       9.55437146       6.45771760       9.20752893      -0.00021415       0.00038883      -0.00025712
Ga       9.54559928      11.04712371       7.88921663       0.00036708       0.00021034      -0.00045313
Ga      11.15320778       8.57218382       7.91079706      -0.00016017       0.00015898       0.00011601
Ga       9.43814847       9.23868661      10.24124359       0.00000679      -0.00018311       0.00031128
Ga       8.22763552       8.42710452       7.42398162      -0.00005268      -0.00014553       0.00029346
Ga       6.95842916       7.62559864       9.98612623      -0.00003851      -0.00016815       0.00003593
8
Lattice="19.21317595803488 0.0 0.0 0.0 19.21317595803488 0.0 0.0 0.0 19.21317595803488" Properties=species:S:1:pos:R:3:forces:R:3 config_type=qcd dft_energy=-18.25120384 gap_energy=-17.403889584651395 relaxed_gap_energy=-17.64181694844514 energy=-17.64181694844514 free_energy=-17.64181694844514 pbc="T T T"
Ga       7.38254633      10.58828814       8.80530744       0.00010275       0.00045324      -0.00017363
Ga       9.69653422      11.65699169       8.07105533      -0.00041232      -0.00055047       0.00027164
Ga      10.79845240       9.20349432       7.99145579       0.00062729       0.00046285      -0.00025873
Ga      11.83114660       8.62526660      10.40760896       0.00064704      -0.00037003      -0.00002692
Ga       9.51743111       7.55653249      11.14189613      -0.00008238      -0.00033068       0.00046557
Ga       8.48700562       8.13630885       8.72503471      -0.00069786      -0.00049912      -0.00048162
Ga      10.72565556      11.07661999      10.48846783      -0.00046843       0.00031315       0.00012677
Ga       8.41393200      10.00920176      11.22187764       0.00028391       0.00052105       0.00007692
9
Lattice="19.97755443664104 0.0 0.0 0.0 19.97755443664104 0.0 0.0 0.0 19.97755443664104" Properties=species:S:1:pos:R:3:forces:R:3 config_type=qcd dft_energy=-20.25445343 gap_energy=-19.907300566915627 relaxed_gap_energy=-21.40569066874649 energy=-21.40569066874649 free_energy=-21.40569066874649 pbc="T T T"
Ga       9.60765914      12.46777433      10.00766904      -0.00011049      -0.00001554       0.00013057
Ga      11.11618054       9.88816188       9.98434268       0.00020387       0.00011605       0.00016229
Ga      10.93993337      11.36356440      12.43385174       0.00013358      -0.00005022       0.00000999
Ga      10.67865698       8.43407599      12.41369833       0.00000509       0.00015737       0.00006727
Ga      10.66279652       8.46893078       7.53742638      -0.00020220       0.00009000       0.00006153
Ga       8.40265535      10.11970498      11.54816688      -0.00003940       0.00005218      -0.00008810
Ga       9.17457243       7.61651968       9.97452568      -0.00009863      -0.00024618      -0.00014324
Ga      10.92408409      11.39837123       7.55741819       0.00003415      -0.00002546      -0.00009188
Ga       8.39245654      10.14189167       8.44189603       0.00007402      -0.00007819      -0.00010842
9
Lattice="18.69771593220143 0.0 0.0 0.0 18.69771593220143 0.0 0.0 0.0 18.69771593220143" Properties=species:S:1:pos:R:3:forces:R:3 config_type=qcd dft_energy=-20.22864906 gap_energy=-20.001769012618798 relaxed_gap_energy=-21.00203194981579 energy=-21.00203194981579 free_energy=-21.00203194981579 pbc="T T T"
Ga      11.18141859       7.44576584      10.34439845       0.00012428      -0.00024787      -0.00000390
Ga      11.79771086      10.28721839      10.67380374      -0.00003529       0.00019319       0.00045304
Ga       9.89788250       6.57510346       7.90834351      -0.00025358       0.00055531      -0.00032541
Ga       9.03786032       9.26717444      11.20611062       0.00000252      -0.00020797      -0.00014989
Ga       7.64666572       8.06087544       8.74557641      -0.00003877       0.00017404       0.00042675
Ga      10.26835505       9.37127197       8.36645243       0.00059457      -0.00053180      -0.00051679
Ga       6.79842396      10.57699895      10.00617541      -0.00075506       0.00016216       0.00061083
Ga       9.49913009      11.85806743       9.59963516      -0.00037957       0.00019961      -0.00074194
Ga       8.01227459      10.69724577       7.28922597       0.00074090      -0.00029666       0.00024730
9
Lattice="20.42071848614284 0.0 0.0 0.0 20.42071848614284 0.0 0.0 0.0 20.42071848614284" Properties=species:S:1:pos:R:3:forces:R:3 config_type=qcd dft_energy=-20.22022473 gap_energy=-19.89236844609552 relaxed_gap_energy=-20.9831866653109 energy=-20.9831866653109 free_energy=-20.9831866653109 pbc="T T T"
Ga       7.25356332      11.34277462      10.81456583       0.00001346       0.00030352      -0.00014709
Ga      13.55244585       9.26603464       9.59722478       0.00027112       0.00016624       0.00032491
Ga      11.73491013       9.85684478      11.66726414      -0.00016363       0.00012354      -0.00031509
Ga       8.10210025       9.59232742       8.55884146      -0.00024546       0.00009539      -0.00031825
Ga       9.95604028      11.50727567       9.91421379      -0.00071981       0.00021472       0.00014049
Ga      10.84538500       8.70651049       8.97024559       0.00014833       0.00008214      -0.00020946
Ga       8.86140308       8.90435409      11.32949952       0.00001044      -0.00057783       0.00030667
Ga       9.49064278      11.39051106      12.78470780       0.00039064       0.00002478       0.00040696
Ga      12.09674251      11.32660042       8.25667030       0.00029491      -0.00043249      -0.00018914
9
Lattice="19.71786517914725 0.0 0.0 0.0 19.71786517914725 0.0 0.0 0.0 19.71786517914725" Properties=species:S:1:pos:R:3:forces:R:3 config_type=qcd dft_energy=-20.20953216 gap_energy=-19.959940350839407 relaxed_gap_energy=-21.405690161332178 energy=-21.405690161332178 free_energy=-21.405690161332178 pbc="T T T"
Ga      10.70734498       8.88830675      11.67632276       0.00007741      -0.00055536      -0.00067238
Ga      11.16940778      11.77919727      10.80040914      -0.00012768      -0.00008486       0.00023471
Ga      12.79914492       9.54708741       9.68625193       0.00070414      -0.00002825      -0.00003305
Ga       8.30216519      10.78395250      11.15702971      -0.00030602       0.00037216      -0.00015423
Ga       9.02353832      12.52355896       8.87159764      -0.00011570       0.00007680      -0.00030914
Ga      11.05617192       7.21768227       9.25559748      -0.00018260      -0.00018606       0.00039726
Ga       7.28042503      10.19427079       8.44047458      -0.00038608      -0.00032394       0.00032208
Ga       8.28249336       7.92150329      10.08749811      -0.00003838       0.00010105      -0.00000757
Ga      10.10970181       9.87483405       8.75521196       0.00037491       0.00062847       0.00022232
9
Lattice="17.70503880167931 0.0 0.0 0.0 17.70503880167931 0.0 0.0 0.0 17.70503880167931" Properties=species:S:1:pos:R:3:forces:R:3 config_type=qcd dft_energy=-20.20597833 gap_energy=-19.62010633832823 relaxed_gap_energy=-20.860131044653276 energy=-20.860131044653276 free_energy=-20.860131044653276 pbc="T T T"
Ga       7.57193795       9.17521371      10.16262558       0.00033808       0.00059044       0.00027171
Ga      10.22850502       8.10622253       8.83297044      -0.00046990       0.00005082      -0.00011584
Ga       8.39797338       9.97540666       7.29816099       0.00032121      -0.00003063       0.00043112
Ga       7.48516710       7.12771632       7.92887751      -0.00012935       0.00005775      -0.00072091
Ga       9.97592246      10.99056485       9.63156075       0.00014097      -0.00020465      -0.00008877
Ga       6.03459327       8.90485838       6.39277628       0.00021443      -0.00030139       0.00003166
Ga      10.00192198       8.79421375      11.70252195       0.00004624       0.00066212      -0.00006607
Ga       8.69449284       6.41901441      10.49529467      -0.00007038      -0.00091954       0.00012973
Ga      11.28216060      10.17946399       7.22788643      -0.00039129       0.00009508       0.00012738
10
Lattice="19.9937785034697 0.0 0.0 0.0 19.9937785034697 0.0 0.0 0.0 19.9937785034697" Properties=species:S:1:pos:R:3:forces:R:3 config_type=qcd dft_energy=-23.14077076 gap_energy=-22.472485759260245 relaxed_gap_energy=-23.730224505613187 energy=-23.730224505613187 free_energy=-23.730224505613187 pbc="T T T"
Ga       9.59313249       9.87516854       6.86848029      -0.00025336      -0.00057421       0.00001505
Ga       9.26041134       7.35657150       8.43292588      -0.00007244       0.00017471       0.00033886
Ga      11.86530328       8.80600252       8.48046672       0.00017580      -0.00004603      -0.00010688
Ga       7.51815233       9.70699261       9.00649802       0.00027043       0.00025129      -0.00009870
Ga      10.15171289      11.16920159       9.26750587      -0.00034817       0.00035882       0.00009913
Ga      12.47531918      10.28509276      10.98822569       0.00064096       0.00030549      -0.00015642
Ga       8.12831008      11.18676872      11.51408239       0.00009226       0.00012869      -0.00031729
Ga      10.40160587      10.12427230      13.12413128      -0.00018106      -0.00013488       0.00032019
Ga      10.73382060      12.64073423      11.55619714      -0.00009464      -0.00018586       0.00040821
Ga       9.84112448       8.81808775      10.73037925      -0.00022979      -0.00027801      -0.00050215
10
Lattice="18.29665326670608 0.0 0.0 0.0 18.29665326670608 0.0 0.0 0.0 18.29665326670608" Properties=species:S:1:pos:R:3:forces:R:3 config_type=qcd dft_energy=-23.13387217 gap_energy=-22.692063481878357 relaxed_gap_energy=-23.73022679095626 energy=-23.73022679095626 free_energy=-23.73022679095626 pbc="T T T"
Ga       8.74940298      10.58306217       6.91454093      -0.00035139       0.00040654      -0.00049066
Ga       7.66432696       7.81245325       6.70369439      -0.00035829      -0.00008926      -0.00014022
Ga       6.19930229       9.87266950       8.28824393      -0.00003368      -0.00030352      -0.00009099
Ga       9.83148111       8.18681359       8.40922356       0.00057613      -0.00006241       0.00004764
Ga      11.11973038      10.90974727       8.68070671       0.00023613       0.00012904       0.00018888
Ga       7.17630509       7.38688840       9.61562189      -0.00007306       0.00001964       0.00045287
Ga      12.09791108       8.42333067      10.00711616      -0.00007003      -0.00018426       0.00010146
Ga       8.46348076      10.11099697       9.88928716       0.00049829      -0.00007958       0.00015656
Ga       9.54771538       7.71372535      11.38274960      -0.00020957       0.00028297      -0.00036366
Ga      10.63361030      10.48357918      11.59208202      -0.00021452      -0.00011917       0.00013813
11
Lattice="17.6858636 0.0 0.0 0.0 17.6858636 0.0 0.0 0.0 17.6858636" Properties=species:S:1:pos:R:3:forces:R:3 config_type=qcd dft_energy=-25.83717156 gap_energy=-25.645456243377275 relaxed_gap_energy=-26.45794562937916 energy=-26.45794562937916 free_energy=-26.45794562937916 pbc="T T T"
Ga       7.32254477       6.42369465       8.37609667      -0.00016698      -0.00014539      -0.00006721
Ga       7.26276757       8.84293180      10.01782335      -0.00013799      -0.00000000      -0.00000883
Ga      10.42309603       8.84293180      10.01782335       0.00013799      -0.00000000      -0.00000883
Ga       6.02580446       8.84293180       7.25129070       0.00004488      -0.00000000       0.00020363
Ga       7.32254477      11.26216895       8.37609667      -0.00016698       0.00014539      -0.00006721
Ga      10.36331883       6.42369465       8.37609667       0.00016698      -0.00014539      -0.00006721
Ga      11.66005914       8.84293180       7.25129070      -0.00004488      -0.00000000       0.00020363
Ga       8.84293180       8.84293180       7.34372400       0.00000000      -0.00000000      -0.00011686
Ga       8.84293180      11.14574044      10.94295552      -0.00000000      -0.00044431      -0.00000194
Ga      10.36331883      11.26216895       8.37609667       0.00016698       0.00014539      -0.00006721
Ga       8.84293180       6.54012316      10.94295552      -0.00000000       0.00044431      -0.00000194
12
Lattice="18.41985777054761 0.0 0.0 0.0 18.41985777054761 0.0 0.0 0.0 18.41985777054761" Properties=species:S:1:pos:R:3:forces:R:3 config_type=qcd dft_energy=-28.69285612 gap_energy=-28.045832673487205 relaxed_gap_energy=-29.30680496760018 energy=-29.30680496760018 free_energy=-29.30680496760018 pbc="T T T"
Ga       9.99354175       7.22401547      10.11686678      -0.00039022      -0.00037290       0.00001364
Ga      11.58366061       8.88909296      11.77063849       0.00040651       0.00062442      -0.00035062
Ga       8.62473001       9.06079758      12.14181203      -0.00017471       0.00038835       0.00007089
Ga       8.10895767       6.34961560       8.12214022      -0.00000336       0.00003440       0.00013788
Ga      12.16966433       8.95218410       8.84197986      -0.00038099       0.00021959      -0.00012191
Ga       9.66621504       8.62383204       7.36209689       0.00025222      -0.00013414      -0.00021007
Ga       7.31622247       8.69651714       9.55019654      -0.00008201      -0.00039131       0.00036092
Ga      10.95778389      11.19423356       7.34445424       0.00069018      -0.00014581       0.00025943
Ga       7.29272342      11.30755341      10.75805831       0.00001953      -0.00031191      -0.00001260
Ga       6.86699385       8.60680102       6.71391147      -0.00020976       0.00025880      -0.00064934
Ga       8.00046645      11.18720058       7.84537218      -0.00010910      -0.00005354       0.00050734
Ga       9.93818711      10.42730315       9.95161961      -0.00001828      -0.00011594      -0.00000555
12
Lattice="17.3444639 0.0 0.0 0.0 17.3444639 0.0 0.0 0.0 17.3444639" Properties=species:S:1:pos:R:3:forces:R:3 config_type=qcd dft_energy=-28.666396 gap_energy=-28.043405473092257 relaxed_gap_energy=-28.69785131674208 energy=-28.69785131674208 free_energy=-28.69785131674208 pbc="T T T"
Ga       7.97384726       5.99494950       9.35708181       0.00023002       0.00004726       0.00019222
Ga       5.97948405       8.09403906      10.10300008       0.00017060       0.00009624       0.00010687
Ga       6.06923984       7.07096725       7.39081875      -0.00040341      -0.00028643       0.00006703
Ga       8.64067366       8.84453376       9.41131520      -0.00024128      -0.00070464      -0.00036919
Ga       8.87257263       7.37525094       6.76219152      -0.00032531       0.00074556      -0.00012241
Ga       7.10176766       9.84708808       7.22596698       0.00032634      -0.00003838      -0.00043396
Ga      10.10796503      10.19478015       7.01513523       0.00015958       0.00001075      -0.00029859
Ga       6.57271792      10.88121609       9.92517787      -0.00001917       0.00001240       0.00012621
Ga       9.28696533      11.69012512       9.35206183       0.00001714       0.00010923       0.00023535
Ga      11.39647634       9.64166992       9.74997860      -0.00000265       0.00018373       0.00011707
Ga      11.51920365       7.60683386       7.56444671       0.00007836      -0.00007156      -0.00001514
Ga      10.54587001       6.82532967      10.20960880       0.00000977      -0.00010416       0.00039455
13
Lattice="17.398972 0.0 0.0 0.0 17.398972 0.0 0.0 0.0 17.398972" Properties=species:S:1:pos:R:3:forces:R:3 config_type=qcd dft_energy=-31.71344384 gap_energy=-30.81905056568633 relaxed_gap_energy=-31.618103554979083 energy=-31.618103554979083 free_energy=-31.618103554979083 pbc="T T T"
Ga       8.69976340       8.50286139       8.69948600      -0.00010443      -0.00022036      -0.00000000
Ga       7.18584529      10.78597960       7.33957406       0.00065497       0.00018507      -0.00020633
Ga       8.69943835       8.75905702       5.61961702       0.00002233      -0.00052512      -0.00054890
Ga      10.21246534      10.78657189       7.33949831      -0.00066539       0.00016458      -0.00017068
Ga      11.15127442       7.91618776       7.19793986      -0.00018305       0.00039123      -0.00035415
Ga       8.69985653       6.13205433       7.18096769       0.00001088      -0.00050924      -0.00030584
Ga       6.24789736       7.91537771       7.19800534       0.00021249       0.00040366      -0.00038262
Ga       7.18584529      10.78597960      10.05939794       0.00065497       0.00018507       0.00020633
Ga       6.24789736       7.91537771      10.20096666       0.00021249       0.00040366       0.00038262
Ga       8.69985653       6.13205433      10.21800431       0.00001088      -0.00050924       0.00030584
Ga      11.15127442       7.91618776      10.20103214      -0.00018305       0.00039123       0.00035415
Ga      10.21246534      10.78657189      10.05947369      -0.00066539       0.00016458       0.00017068
Ga       8.69943835       8.75905702      11.77935498       0.00002233      -0.00052512       0.00054890
14
Lattice="18.36247742 0.0 0.0 0.0 18.36247742 0.0 0.0 0.0 18.36247742" Properties=species:S:1:pos:R:3:forces:R:3 config_type=qcd dft_energy=-34.6549452 gap_energy=-32.74399688313146 relaxed_gap_energy=-34.47385696881557 energy=-34.47385696881557 free_energy=-34.47385696881557 pbc="T T T"
Ga      10.17414208      10.34111645      11.74179073       0.00003891      -0.00004981       0.00068823
Ga       7.18936271      10.24689163      11.39181051      -0.00007718      -0.00025411      -0.00096209
Ga       8.76301107      12.35100759      10.03522316      -0.00005818       0.00034521       0.00055228
Ga       8.07157660       7.38295627      11.33496265       0.00014159       0.00069717      -0.00028056
Ga       6.66523652      10.84138738       8.44012930       0.00036262       0.00002096       0.00062783
Ga       9.51056617      11.32157264       7.28277128      -0.00055782      -0.00007483      -0.00028027
Ga      11.69334514       9.99964259       9.10275626       0.00036526       0.00032013      -0.00017931
Ga      11.03122628       7.60227581      10.93657912       0.00026910      -0.00014097       0.00005205
Ga       9.04129146       9.37758017       9.27286803       0.00059319      -0.00014882      -0.00002290
Ga       6.46112398       7.82466033       8.95788846      -0.00056375      -0.00006780      -0.00023367
Ga       9.20352921       6.76860510       8.53254948      -0.00009500       0.00005027      -0.00022101
Ga       7.87473147       8.79655763       6.48200925      -0.00027538      -0.00021012      -0.00050721
Ga      10.66848676       8.63636500       6.56883784      -0.00051488      -0.00032225       0.00051103
Ga      12.18971251       7.04672332       8.45716586       0.00037151      -0.00016502       0.00025560
14
Lattice="18.4915383 0.0 0.0 0.0 18.4915383 0.0 0.0 0.0 18.4915383" Properties=species:S:1:pos:R:3:forces:R:3 config_type=qcd dft_energy=-34.65310471 gap_energy=-33.54202134493941 relaxed_gap_energy=-34.41817280107264 energy=-34.41817280107264 free_energy=-34.41817280107264 pbc="T T T"
Ga       7.50393309       7.69778369       7.72105018      -0.00018228      -0.00000281       0.00063467
Ga       7.50393309       7.69778369      10.77048812      -0.00018228      -0.00000281      -0.00063467
Ga       9.58038911       9.24575278       6.07507798      -0.00001765       0.00048845      -0.00002752
Ga      10.23718558       6.78416540       7.72271603      -0.00009058      -0.00036700      -0.00015623
Ga      10.23718558       6.78416540      10.76882227      -0.00009058      -0.00036700       0.00015623
Ga      12.05835078       9.24483610       7.74360843       0.00003310       0.00047389       0.00006208
Ga      12.05835078       9.24483610      10.74792987       0.00003310       0.00047389      -0.00006208
Ga       7.50435182      10.79457183      10.77035032       0.00020157      -0.00001878       0.00064856
Ga       9.58038911       9.24575278      12.41646032      -0.00001765       0.00048845       0.00002752
Ga      10.23878506      11.70693016      10.76884260       0.00006310      -0.00054953      -0.00010602
Ga       9.67324955       9.24604233       9.24576915       0.00000865       0.00012431       0.00000000
Ga      10.23878506      11.70693016       7.72269570       0.00006310      -0.00054953       0.00010602
Ga       7.50435182      10.79457183       7.72118798       0.00020157      -0.00001878      -0.00064856
Ga       5.52152767       9.24664589       9.24576915      -0.00002318      -0.00017275       0.00000000
15
Lattice="19.1231695 0.0 0.0 0.0 19.1231695 0.0 0.0 0.0 19.1231695" Properties=species:S:1:pos:R:3:forces:R:3 config_type=qcd dft_energy=-37.00689232 gap_energy=-35.709575145420985 relaxed_gap_energy=-36.99327003157464 energy=-36.99327003157464 free_energy=-36.99327003157464 pbc="T T T"