3
Lattice="17.48439836152584 0.0 0.0 0.0 17.48439836152584 0.0 0.0 0.0 17.48439836152584" Properties=species:S:1:pos:R:3:forces:R:3 config_type=qcd dft_energy=-9.07381045 gap_energy=-9.401785653832274 relaxed_gap_energy=-9.426526923876775 energy=-9.426526923876775 free_energy=-9.426526923876775 pbc="T T T"
Ge       7.50046917       8.11299890       8.91326493      -0.00035587      -0.00016784       0.00004671
Ge       9.92531574       7.99402422       8.82893434       0.00033362      -0.00018968       0.00002051
Ge       8.80081263      10.11957443       8.48439826       0.00002225       0.00035751      -0.00006722
3
Lattice="15.69683658373474 0.0 0.0 0.0 15.69683658373474 0.0 0.0 0.0 15.69683658373474" Properties=species:S:1:pos:R:3:forces:R:3 config_type=qcd dft_energy=-9.06776796 gap_energy=-8.820351171931275 relaxed_gap_energy=-9.42652685889929 energy=-9.42652685889929 free_energy=-9.42652685889929 pbc="T T T"
Ge       7.86050215       7.36751137       9.16594877       0.00006118       0.00001699      -0.00083564
Ge       7.54639157       9.19453099       7.59599541      -0.00012314       0.00041231       0.00031506
Ge       8.13836116       6.98321252       6.78331070       0.00006197      -0.00042930       0.00052058
4
Lattice="17.34546969279077 0.0 0.0 0.0 17.34546969279077 0.0 0.0 0.0 17.34546969279077" Properties=species:S:1:pos:R:3:forces:R:3 config_type=qcd dft_energy=-13.97789597 gap_energy=-13.257993193844484 relaxed_gap_energy=-13.30466965417186 energy=-13.30466965417186 free_energy=-13.30466965417186 pbc="T T T"
Ge       9.39643080       9.86807920       8.69001013       0.00017416       0.00050301      -0.00012975
Ge       8.16802476       9.00682317       6.69194963      -0.00004957       0.00022043      -0.00074011
Ge       9.17783924       8.33838269      10.65337855       0.00018952      -0.00022207       0.00067701
Ge       7.94864457       7.47765432       8.65560107      -0.00031411      -0.00050137       0.00019285
5
Lattice="17.74646202176133 0.0 0.0 0.0 17.74646202176133 0.0 0.0 0.0 17.74646202176133" Properties=species:S:1:pos:R:3:forces:R:3 config_type=qcd dft_energy=-18.50988262 gap_energy=-17.385993335804915 relaxed_gap_energy=-18.670758545881075 energy=-18.670758545881075 free_energy=-18.670758545881075 pbc="T T T"
Ge       9.49457031       9.95397767       7.88499897      -0.00031864      -0.00040341      -0.00010384
Ge       7.99818057       7.93801291       7.30042400       0.00034236       0.00028284       0.00044388
Ge       9.68294863       7.54638150       9.21172855      -0.00020948       0.00031988      -0.00020098
Ge       7.44217625       9.11927812       9.52305842       0.00035823       0.00002005      -0.00017537
Ge       9.74827930       9.80850486      10.44594512      -0.00017247      -0.00021935       0.00003631
6
Lattice="17.91846655208915 0.0 0.0 0.0 17.91846655208915 0.0 0.0 0.0 17.91846655208915" Properties=species:S:1:pos:R:3:forces:R:3 config_type=qcd dft_energy=-23.17676695 gap_energy=-22.578017660112828 relaxed_gap_energy=-23.21228312257255 energy=-23.21228312257255 free_energy=-23.21228312257255 pbc="T T T"
Ge       7.80679778       9.84445875       7.75425674       0.00033088      -0.00018207       0.00027140
Ge       9.53458828       7.81786005       7.57031028       0.00028643      -0.00006114      -0.00009101
Ge       8.38359719      10.10056358      10.34807085       0.00016382       0.00014811       0.00024999
Ge      10.33928260      10.17447827       8.53243242      -0.00049526       0.00020303      -0.00043082
Ge       7.57930016       7.74387474       9.38620207       0.00034433       0.00021907      -0.00005258
Ge      10.11183365       8.07416427      10.16412729      -0.00063020      -0.00032701       0.00005302
7
Lattice="16.8206646773296 0.0 0.0 0.0 16.8206646773296 0.0 0.0 0.0 16.8206646773296" Properties=species:S:1:pos:R:3:forces:R:3 config_type=qcd dft_energy=-27.83094996 gap_energy=-27.30658751924207 relaxed_gap_energy=-27.422551854738085 energy=-27.422551854738085 free_energy=-27.422551854738085 pbc="T T T"
Ge       9.54292451      10.32418416       8.34459998      -0.00014437      -0.00027129       0.00013571
Ge       9.40235645       7.79124060       7.47643786      -0.00002615      -0.00003013       0.00019543
Ge       8.21201955       6.47216086       9.48449141       0.00020108       0.00025886       0.00006669
Ge       7.59852806       9.63245746       6.73791559       0.00005601       0.00009422      -0.00001731
Ge       9.92214043       8.37104637      10.04229005      -0.00062449      -0.00012627      -0.00063029
Ge       7.41833573       9.02943154       9.34426575       0.00018175      -0.00012328      -0.00003939
Ge       6.77602164       7.25180536       7.44232573       0.00035618       0.00019788       0.00028916
8
Lattice="17.56909493533518 0.0 0.0 0.0 17.56909493533518 0.0 0.0 0.0 17.56909493533518" Properties=species:S:1:pos:R:3:forces:R:3 config_type=qcd dft_energy=-31.12749901 gap_energy=-30.710411339621913 relaxed_gap_energy=-31.47769693328948 energy=-31.47769693328948 free_energy=-31.47769693328948 pbc="T T T"
Ge       9.45359314       7.04343314       8.55024173      -0.00018852      -0.00022683      -0.00031487
Ge       8.77506294       8.43624911       6.38552764       0.00014239      -0.00034862       0.00076780
Ge      10.96818541       9.09131386       7.77785528      -0.00013085       0.00012289      -0.00019839
Ge       9.94064487       9.22851119      10.20005449       0.00002198       0.00011403       0.00041512
Ge       7.00912596       8.35245296       8.33924222      -0.00034918      -0.00058533       0.00003221
Ge       8.73467057      10.51374931       8.04888293       0.00030889       0.00065919      -0.00018106
Ge       7.96661962       7.50680829      10.67501509       0.00005460       0.00027874      -0.00070018
Ge       7.42847722      10.10386188      10.29956035       0.00014070      -0.00001406       0.00017937
9
Lattice="18.4694672216531 0.0 0.0 0.0 18.4694672216531 0.0 0.0 0.0 18.4694672216531" Properties=species:S:1:pos:R:3:forces:R:3 config_type=qcd dft_energy=-35.7781482 gap_energy=-35.39019566265507 relaxed_gap_energy=-35.52225051019992 energy=-35.52225051019992 free_energy=-35.52225051019992 pbc="T T T"
Ge       8.04692824      10.52740368       8.28577103       0.00017244       0.00017615      -0.00005439
Ge       9.74028371      10.77833374      10.39408113      -0.00000717       0.00031593      -0.00020180
Ge      10.73015570      10.18891491       7.92007392      -0.00000864      -0.00003565      -0.00001150
Ge       9.78094126       8.49946868      11.74385617       0.00015195      -0.00034057       0.00038252
Ge      11.76554194       9.10023435      10.07829572      -0.00000110      -0.00010260      -0.00004646
Ge       7.51453093       9.21517836      10.61869265      -0.00059851       0.00022558       0.00038729
Ge       8.99652301       8.68989381       6.63066226      -0.00001627      -0.00005170       0.00021382
Ge       9.52585912       8.02409051       9.14501057       0.00046927       0.00009479      -0.00050281
Ge       7.01183858       8.08908445       8.29615906      -0.00016198      -0.00028192      -0.00016667
10
Lattice="18.35281241827081 0.0 0.0 0.0 18.35281241827081 0.0 0.0 0.0 18.35281241827081" Properties=species:S:1:pos:R:3:forces:R:3 config_type=qcd dft_energy=-40.65770124 gap_energy=-39.61345732332263 relaxed_gap_energy=-39.71519641016071 energy=-39.71519641016071 free_energy=-39.71519641016071 pbc="T T T"
Ge       9.16478999      11.66259334       8.64260067       0.00055972      -0.00009835       0.00025341
Ge      10.51874389      10.12915804      10.27202325      -0.00030345       0.00028345      -0.00041861
Ge      12.14122688       8.75369441       8.86277578      -0.00058918       0.00018399      -0.00000546
Ge       7.34015748       9.90359735       7.86080622       0.00043009      -0.00024130       0.00079024
Ge       7.70166320      10.47347819      10.50825561      -0.00002590      -0.00038394      -0.00073595
Ge      10.13845830       9.52925346       7.48518407      -0.00048937       0.00009881       0.00041359
Ge      10.04391643       7.41861963       9.43643308      -0.00040823       0.00011643      -0.00046148
Ge       9.02142917       8.45357522      11.60956341       0.00028009      -0.00026365       0.00007583
Ge       7.25072173       7.89849951       9.71443266       0.00004076       0.00071741      -0.00041256
Ge       8.44295503       7.54159294       7.37198735       0.00050547      -0.00041285       0.00050098
11
Lattice="19.81340649085176 0.0 0.0 0.0 19.81340649085176 0.0 0.0 0.0 19.81340649085176" Properties=species:S:1:pos:R:3:forces:R:3 config_type=qcd dft_energy=-43.94886797 gap_energy=-43.31358333450363 relaxed_gap_energy=-43.51811512837385 energy=-43.51811512837385 free_energy=-43.51811512837385 pbc="T T T"
Ge       9.49951689       6.72434403      10.46236662      -0.00015061       0.00047255      -0.00052831
Ge      10.24963931      10.25337709      12.53772754      -0.00020986       0.00022479      -0.00079780
Ge      11.31870751       8.42569556      11.00973681       0.00011192       0.00003628       0.00029798
Ge       8.49488563       8.99946302      11.04566199       0.00028626      -0.00036551       0.00070940
Ge      11.74007085      11.21084957      10.55825943      -0.00040914      -0.00058772      -0.00018055
Ge      12.24929273       9.33626097       8.74626673      -0.00052645       0.00028844       0.00032928
Ge       9.80836580       8.39671620       8.55612460       0.00039971      -0.00024047      -0.00036717
Ge       9.08019807      11.74149690      10.67121504       0.00024767       0.00022231      -0.00015695
Ge       7.83745071      10.12329061       8.76236897      -0.00005797      -0.00049127       0.00053401
Ge      10.37795264      11.14641550       8.21079442       0.00004391       0.00007323       0.00038671
Ge       8.31765557      12.61582625       8.41321355       0.00026457       0.00036738      -0.00022660
12
Lattice="20.12622615217444 0.0 0.0 0.0 20.12622615217444 0.0 0.0 0.0 20.12622615217444" Properties=species:S:1:pos:R:3:forces:R:3 config_type=qcd dft_energy=-48.03723437 gap_energy=-46.74911014089169 relaxed_gap_energy=-47.22789358315684 energy=-47.22789358315684 free_energy=-47.22789358315684 pbc="T T T"
Ge      10.71253370       6.98648124      12.73172652      -0.00054035      -0.00066552      -0.00012807
Ge      12.01637921       8.91836147      11.69492972       0.00056055       0.00058181      -0.00046946
Ge       9.32203576       9.12017411      12.58317609      -0.00045868       0.00010760       0.00018500
Ge       9.98215686       7.53589528      10.39227741      -0.00008826      -0.00039657       0.00036494
Ge      11.47651910       9.57044982       9.08611714       0.00073923       0.00035146       0.00022396
Ge       9.29499313       8.44510002       8.10173828      -0.00038450      -0.00037750      -0.00058019
Ge       8.29492700       9.80910815      10.13505596       0.00027393       0.00017428       0.00015864
Ge      11.42437407      12.31239191       9.12695729       0.00027269      -0.00042409       0.00024087
Ge      10.54384545      11.07648462      11.29164472       0.00044514       0.00051438       0.00040294
Ge       9.38093760      10.98236946       7.78465125      -0.00012874       0.00039281      -0.00012282
Ge       9.57873991      13.48602493       7.81406637      -0.00052641      -0.00032588      -0.00020245
Ge       8.72991513      12.51451590      10.01501616      -0.00016460       0.00006723      -0.00007336
13
Lattice="20.89518398302432 0.0 0.0 0.0 20.89518398302432 0.0 0.0 0.0 20.89518398302432" Properties=species:S:1:pos:R:3:forces:R:3 config_type=qcd dft_energy=-51.95379123 gap_energy=-51.56344620472887 relaxed_gap_energy=-51.782473539147695 energy=-51.782473539147695 free_energy=-51.782473539147695 pbc="T T T"
Ge      12.69167663      12.21272639       8.29321140      -0.00019925       0.00069044       0.00006992
Ge       9.10880048       9.50559210       9.07105690      -0.00032650      -0.00019757       0.00029694
Ge      12.81388029      12.82387201      10.92525731       0.00002407      -0.00059005      -0.00006586
Ge      11.52544305       9.86343872       8.20957805       0.00045651      -0.00031600       0.00004588
Ge      13.45673158      10.37594645      10.10658683      -0.00002117      -0.00002998       0.00021908
Ge      10.50114427      11.95606840       9.78781819       0.00010822      -0.00000752       0.00060185
Ge      11.33879581       8.65747682      10.56400654      -0.00010243       0.00021972       0.00013393
Ge       7.88523199      11.70832545       9.73981868      -0.00014640       0.00009062      -0.00039270
Ge       8.92405528       7.52301695      10.73412100       0.00011970      -0.00045731       0.00004432
Ge       8.95622416      11.64596788      12.21028369       0.00029345       0.00011153      -0.00008943
Ge       7.39563295       9.61232749      11.32802356      -0.00045010       0.00027980       0.00020579
Ge      11.54179029      10.84178207      12.11223691       0.00019379       0.00044452      -0.00066634
Ge       9.67928909       9.09215516      12.73669684       0.00005011      -0.00023819      -0.00040335
14
Lattice="19.35625364158582 0.0 0.0 0.0 19.35625364158582 0.0 0.0 0.0 19.35625364158582" Properties=species:S:1:pos:R:3:forces:R:3 config_type=qcd dft_energy=-56.24152537 gap_energy=-55.40945099599667 relaxed_gap_energy=-55.631932102337196 energy=-55.631932102337196 free_energy=-55.631932102337196 pbc="T T T"
Ge      11.25299352       7.12579884       8.86908332       0.00008943       0.00002527      -0.00026693
Ge      12.46671575       8.47782033      10.90612093      -0.00017359      -0.00022094       0.00024008
Ge      10.45442210       6.83298345      11.47688988      -0.00018257       0.00045875       0.00007243
Ge       8.61534603       6.94745055       9.46835834      -0.00032710       0.00064332       0.00007564
Ge      11.24684073      10.02967502       9.28988044       0.00052400      -0.00020548      -0.00019812
Ge       9.45925548       8.97332249       7.74998076       0.00023413      -0.00010909       0.00030876
Ge       8.13819637       8.13109557      11.86196349      -0.00004976      -0.00057232      -0.00047161
Ge      10.35156928       9.67235888      11.94002163       0.00028267       0.00003808       0.00031714
Ge       9.32410365      11.93163696       7.61969255       0.00046865      -0.00005578       0.00070125
Ge      11.61409406      12.48389306       8.75096450       0.00010524       0.00009842      -0.00072509
Ge       7.18991459      10.42671210       7.52975294      -0.00016555       0.00004295       0.00000027
Ge       8.15426793       9.85324767       9.98001131       0.00000171       0.00042982       0.00003588
Ge       7.41031780      12.39375242       9.42845822      -0.00031119      -0.00063928       0.00034633
Ge       9.81573820      12.21402816      10.62259717      -0.00049608       0.00006630      -0.00043603
15
Lattice="20.90807868724478 0.0 0.0 0.0 20.90807868724478 0.0 0.0 0.0 20.90807868724478" Properties=species:S:1:pos:R:3:forces:R:3 config_type=qcd dft_energy=-60.90728461 gap_energy=-59.613373829810854 relaxed_gap_energy=-59.91569121577709 energy=-59.91569121577709 free_energy=-59.91569121577709 pbc="T T T"
Ge      11.70580209      10.88590755       7.52036139       0.00034938       0.00023658      -0.00019794
Ge       9.57622346       9.35710265       7.97954956      -0.00001059      -0.00019334      -0.00009964
Ge      12.03021412       7.94905755      12.28923437       0.00009187       0.00016490       0.00033648
Ge       8.96009535      12.85997050      10.17085027       0.00013402       0.00003492       0.00040205
Ge       9.51502262       8.66644324      13.04721858      -0.00002801      -0.00011991       0.00022030
Ge      11.62703872      10.24440462      13.72718732       0.00013012       0.00014594      -0.00021891
Ge      10.07862466       7.59880585      10.47742048       0.00031486       0.00013059      -0.00034157
Ge      11.36183007      11.74495721      11.18310810      -0.00050241      -0.00017441       0.00065560
Ge      11.30425120      13.17020381       8.94957289       0.00040111      -0.00004739      -0.00029599
Ge       9.39467273      11.50059118      12.91837301       0.00000062       0.00014518      -0.00034644
Ge      11.75414666       9.51133044       9.78661327      -0.00020047      -0.00022407       0.00019514
Ge      13.41221819      10.17101679      11.73810820       0.00010965      -0.00022137      -0.00014495
Ge       9.37243564      12.14986059       7.44022938      -0.00000095       0.00033437      -0.00045952
Ge       9.15663072      10.06390130      10.71339355      -0.00000101      -0.00016620       0.00027491
Ge       7.56138390      10.93703685       8.86936979      -0.00078820      -0.00004579       0.00002048
16
Lattice="21.49139522843896 0.0 0.0 0.0 21.49139522843896 0.0 0.0 0.0 21.49139522843896" Properties=species:S:1:pos:R:3:forces:R:3 config_type=qcd dft_energy=-64.98007909 gap_energy=-63.97132724711096 relaxed_gap_energy=-64.44164512145719 energy=-64.44164512145719 free_energy=-64.44164512145719 pbc="T T T"
Ge      13.47919898      11.56518129      11.93611812       0.00042378       0.00018793      -0.00031165
Ge      11.83552305      10.21592095      13.70189450      -0.00009716      -0.00043687      -0.00062998
Ge      13.70809600       8.89210967      12.24386130      -0.00027753       0.00050614       0.00080320
Ge      11.11995267       7.93471436      12.37807355       0.00036493      -0.00001222       0.00033366
Ge      13.88046639      10.10798953       9.75290749       0.00012177      -0.00019104      -0.00019529
Ge      10.87411784      12.21321146      12.09746397      -0.00012340      -0.00011505       0.00005231
Ge      12.48053024       7.86564771      10.10703765       0.00011980       0.00033338       0.00014640
Ge       9.38356910      10.04254461      12.32929369      -0.00047723       0.00044713      -0.00025423
Ge      10.09619283       9.01097874      10.00245435      -0.00028872       0.00023963      -0.00038651
Ge      11.55916061      11.16826782       9.80097946      -0.00026563      -0.00036889      -0.00030533
Ge       9.76965133      14.01455296      10.50225751       0.00025536      -0.00040982       0.00052227
Ge       7.65516261      10.24218773      10.11571866       0.00028783      -0.00009023      -0.00010149
Ge       8.09876763      12.38409476      11.75343034       0.00013580       0.00014786       0.00039475
Ge      10.63696214      12.94601222       8.21859200      -0.00017493      -0.00005182       0.00035556
Ge       9.36805212      10.62536955       7.97972937      -0.00012721      -0.00032479      -0.00045966
Ge       7.98575831      12.70237847       9.01134986       0.00012254       0.00013865       0.00003601
17
Lattice="23.58397520307583 0.0 0.0 0.0 23.58397520307583 0.0 0.0 0.0 23.58397520307583" Properties=species:S:1:pos:R:3:forces:R:3 config_type=qcd dft_energy=-68.83989028 gap_energy=-67.716462756851 relaxed_gap_energy=-67.9598185576707 energy=-67.9598185576707 free_energy=-67.9598185576707 pbc="T T T"
Ge      14.04366088      12.07293577      14.48482811       0.00065033       0.00003747       0.00016662
Ge       9.52472757       9.46378153      10.43592546      -0.00049979      -0.00012627      -0.00008013
Ge      14.25662651      13.74760411      10.40941940      -0.00008038      -0.00007222      -0.00033623
Ge       7.35735252      11.39874813      13.40387707       0.00038463      -0.00000300      -0.00062791
Ge      11.69551408      11.91325563      13.29264120      -0.00000369      -0.00025458      -0.00063982
Ge       8.04453270      11.58624321      10.93791069      -0.00050490      -0.00028470       0.00044591
Ge      13.98391021      10.06064444      12.79346702      -0.00057256      -0.00034560      -0.00026408
Ge      13.40346907      14.15717237      12.95079879       0.00007596       0.00036673       0.00022042
Ge      11.80166942      13.09110760      10.94404093      -0.00014861      -0.00042395       0.00024092
Ge       9.57481986      10.20254401      12.95887294       0.00043626       0.00000215       0.00051130
Ge       9.35780815      13.87065984      10.53996518       0.00029254       0.00015298       0.00033132
Ge       9.24149785      13.06401294      13.06737663      -0.00071518       0.00010856      -0.00038133
Ge      16.21094052      10.11058591      11.53479675      -0.00028684       0.00020107       0.00040821
Ge      11.87929096      10.46598883      11.07813818       0.00007004       0.00051401       0.00040293
Ge      10.19807991      11.69946129       9.14925243      -0.00016004      -0.00003707      -0.00039106
Ge      14.34698611      11.10811728      10.13245485       0.00053377       0.00047700      -0.00013593
Ge      15.54290289      12.45092635      12.35002359       0.00052846      -0.00031256       0.00012885
18
Lattice="23.7256357935988 0.0 0.0 0.0 23.7256357935988 0.0 0.0 0.0 23.7256357935988" Properties=species:S:1:pos:R:3:forces:R:3 config_type=qcd dft_energy=-72.8504626 gap_energy=-71.78224285201411 relaxed_gap_energy=-72.18860499980214 energy=-72.18860499980214 free_energy=-72.18860499980214 pbc="T T T"
Ge      13.12076042      16.35236423      10.80666130       0.00014203      -0.00001564       0.00006446
Ge      10.75364992      16.17312027      11.88378899       0.00024141      -0.00012631      -0.00043597
Ge      13.72135503      13.76502989      10.82407032      -0.00056548       0.00006414      -0.00028370
Ge      11.43781523      14.69273654       9.57855072       0.00003584       0.00035681       0.00012849
Ge       9.34245269      14.04192410      11.18256366      -0.00028995      -0.00001264       0.00009603
Ge      13.03196822      15.08651230      13.14871590      -0.00005074      -0.00025459       0.00006254
Ge      11.55591109      12.20932402      10.38560170       0.00045856       0.00027921      -0.00077954
Ge      12.71792026      12.49604494      12.98796799       0.00066681      -0.00007433       0.00005858
Ge      10.24862661      12.02342357      12.56609619      -0.00042018      -0.00009306       0.00044940
Ge      10.49681110      14.32642663      13.76776298      -0.00008272       0.00000380       0.00007512
Ge      14.07448381      11.02535534      10.96734318       0.00018480      -0.00014360      -0.00020420
Ge      12.14612357       9.75802426       9.70431422       0.00013023       0.00033479       0.00043846
Ge      13.81492796      10.16926318      13.44080265      -0.00044472      -0.00011682       0.00004800
Ge      13.38271638       8.35387536      11.57007665      -0.00002889       0.00019266      -0.00013105
Ge      10.56550072       8.32161545      11.23892427       0.00007830       0.00025738      -0.00022626
Ge       9.50317895       9.65187174      13.15987732      -0.00032958      -0.00023348       0.00011560
Ge      11.73986298       8.61094001      13.86817649       0.00012622      -0.00011572       0.00024983
Ge      11.87665718       6.47287033      12.44942761       0.00014805      -0.00030260       0.00027420
19
Lattice="21.64627236006745 0.0 0.0 0.0 21.64627236006745 0.0 0.0 0.0 21.64627236006745" Properties=species:S:1:pos:R:3:forces:R:3 config_type=qcd dft_energy=-77.18276602 gap_energy=-75.8603600865819 relaxed_gap_energy=-76.20687214815574 energy=-76.20687214815574 free_energy=-76.20687214815574 pbc="T T T"
Ge      13.71075875      14.24430375       8.25649503      -0.00028897       0.00007734       0.00014686
Ge      12.20789767      14.74927748      10.48752821       0.00055457       0.00030301      -0.00001499
Ge      14.61752290      13.49126339      10.61390733      -0.00038607      -0.00008273       0.00026059
Ge      12.69276890      12.37417888       6.73158984      -0.00055554       0.00019475       0.00031805
Ge      10.98065198      13.90768694       8.08812960       0.00013915      -0.00033152      -0.00002020
Ge      10.30106562      12.90163320      10.38126596      -0.00019021      -0.00016196      -0.00030674
Ge      12.62021063      11.95067018      11.01726893       0.00018779      -0.00023084       0.00031559
Ge      14.10307636      11.51638939       8.83674692      -0.00016952      -0.00058280       0.00014447
Ge      12.00435418       9.83874532      12.43805709      -0.00020108      -0.00023794      -0.00047912
Ge      11.37620019      11.13678815       8.63055414       0.00029454       0.00073325      -0.00036589
Ge       8.58525583      11.21861310      11.60390463       0.00045204      -0.00024637      -0.00058503
Ge       9.80973608      10.31095247      13.74206312       0.00001935       0.00038424       0.00014893
Ge      10.71146107       7.68416553      13.03062511      -0.00032479       0.00030290       0.00026043
Ge      10.32697912       9.61423148      10.43519140      -0.00055957       0.00033276       0.00048830
Ge       8.77911545       8.13205162      14.74794700       0.00053928      -0.00005526       0.00011151
Ge       7.76402338       8.89852358      10.48027839       0.00000786       0.00011327       0.00018710
Ge       9.84049251       7.09855148      10.56431894       0.00039947      -0.00059070      -0.00024505
Ge       8.01393020       7.02478794      12.46037021       0.00005415      -0.00019907       0.00002305
Ge       7.19408660       9.54677353      13.09334557       0.00002755       0.00027764      -0.00038788
19
Lattice="22.53432169561078 0.0 0.0 0.0 22.53432169561078 0.0 0.0 0.0 22.53432169561078" Properties=species:S:1:pos:R:3:forces:R:3 config_type=qcd dft_energy=-77.17427889 gap_energy=-75.99490311396387 relaxed_gap_energy=-76.42279628322522 energy=-76.42279628322522 free_energy=-76.42279628322522 pbc="T T T"
Ge      13.34641695      11.40699758      10.13912161       0.00064948      -0.00021788       0.00020758
Ge      12.96110556      10.71246091       7.66348616      -0.00093482       0.00030430      -0.00013259
Ge      11.74581937      13.25745947      11.02453639       0.00063490      -0.00043414       0.00049498
Ge      12.80557181       8.04364679       8.00507566       0.00063921      -0.00030603       0.00038806
Ge      15.04258088       9.40858900       8.78843633       0.00050427       0.00006144      -0.00010859
Ge      11.59772562      13.66589656      13.67084269      -0.00038582       0.00042487      -0.00015068
Ge      14.89765148       9.79715733      11.44233868       0.00004824       0.00028322      -0.00015106
Ge       9.54899897      11.97287932      10.32289283      -0.00033075       0.00069403      -0.00004440
Ge      11.12601742      10.10207864       9.38454698       0.00001488      -0.00036455       0.00004455
Ge      13.97348700       7.46866785      10.42005890      -0.00015518      -0.00019888       0.00007537
Ge      11.27608352       7.65328343      10.18040098      -0.00021801      -0.00044374      -0.00048157
Ge       8.27940570      11.08969943      12.44084792      -0.00028529      -0.00009709       0.00028901
Ge       8.08953235      13.78029675      11.61634514       0.00007321      -0.00028523       0.00016842
Ge      10.26726972      15.27779370      11.86557697      -0.00009761       0.00052076       0.00012979
Ge      12.35425181       9.40311736      11.77548549      -0.00035942       0.00008119      -0.00023296
Ge      10.89347813      11.31399699      12.58565139      -0.00001446       0.00037072      -0.00003441
Ge       7.16598153      12.95946443      13.93373681      -0.00011974      -0.00039402       0.00030927
Ge       9.11670260      14.70149644      14.10735953       0.00061356       0.00029307      -0.00047302
Ge       9.58797571      12.06107413      14.70931564      -0.00027664      -0.00029202      -0.00029774
19
Lattice="21.35871433915577 0.0 0.0 0.0 21.35871433915577 0.0 0.0 0.0 21.35871433915577" Properties=species:S:1:pos:R:3:forces:R:3 config_type=qcd dft_energy=-77.17150721 gap_energy=-74.96568957213402 relaxed_gap_energy=-75.85490940690151 energy=-75.85490940690151 free_energy=-75.85490940690151 pbc="T T T"
Ge      11.36100920      12.41734408       7.24314898      -0.00027406      -0.00000404       0.00050958
Ge      11.58353221       9.71789094       7.57578991       0.00015005      -0.00017602      -0.00049758
Ge      10.08497626      11.54794511       9.33218695      -0.00014335       0.00034445       0.00002468
Ge      13.84500652      11.09471775       7.34124635      -0.00002458       0.00010130       0.00045176
Ge      13.65139624      13.65670901       7.79761317      -0.00011497      -0.00030095       0.00005565
Ge      11.83101151      13.55135940       9.73125455       0.00022841      -0.00047774      -0.00045223
Ge      11.15117940       9.36149392      10.13929015       0.00066721      -0.00009841      -0.00046917
Ge      13.68612904       9.53842400       9.47855359       0.00020812       0.00005230       0.00002180
Ge      14.22978303      12.16825374       9.92515355      -0.00027341       0.00015817       0.00003255
Ge       7.95608521      11.81485565      10.78873123       0.00014318      -0.00033027       0.00032075
Ge      12.18553073      11.37548671      11.29371536      -0.00025287      -0.00012462      -0.00018241
Ge       9.49327751       7.94658238      11.46386037      -0.00013019      -0.00035855       0.00019974
Ge       9.95628040      13.24801541      11.72221201      -0.00013776       0.00062102       0.00035184
Ge       7.05724886       9.17387391      11.48011234      -0.00018625       0.00062086       0.00014301
Ge       7.54593075       6.90720773      12.95736217       0.00006178      -0.00012310      -0.00032144
Ge       9.20464146      10.28846305      12.72635718       0.00015951      -0.00043335      -0.00025268
Ge      11.12660680      11.86095123      13.57377552      -0.00002491       0.00006233      -0.00005032