3
Lattice="30.0 0.0 0.0 0.0 30.0 0.0 0.0 0.0 30.0" Properties=species:S:1:pos:R:3:forces:R:3 config_type=qcd dft_energy=-18.11133788 gap_energy=-18.169764025755125 relaxed_gap_energy=-18.218832399022844 energy=-18.218832399022844 free_energy=-18.218832399022844 pbc="T T T"
Hf       9.73439451      10.32212743       8.43127668       0.00001224       0.00004704      -0.00008918
Hf       8.88523332       8.80615639      10.34065271       0.00022157       0.00014735       0.00010947
Hf      10.89092068      10.38226469      10.73861912      -0.00023381      -0.00019439      -0.00002029
4
Lattice="30.0 0.0 0.0 0.0 30.0 0.0 0.0 0.0 30.0" Properties=species:S:1:pos:R:3:forces:R:3 config_type=qcd dft_energy=-26.8593421 gap_energy=-27.21578856672274 relaxed_gap_energy=-27.225861949511653 energy=-27.225861949511653 free_energy=-27.225861949511653 pbc="T T T"
Hf       8.98448175       8.27937831       8.70996908       0.00019652      -0.00040507      -0.00015061
Hf       8.67473964       9.77675406      10.92355082      -0.00014678       0.00018337       0.00038352
Hf       9.53662511      10.91158232       8.64152282       0.00009446       0.00033037      -0.00006479
Hf      11.14311520       9.23509158      10.00053176      -0.00014421      -0.00010866      -0.00016812
5
Lattice="16.81473720497824 0.0 0.0 0.0 16.81473720497824 0.0 0.0 0.0 16.81473720497824" Properties=species:S:1:pos:R:3:forces:R:3 config_type=qcd dft_energy=-35.87229125 gap_energy=-35.47321617922607 relaxed_gap_energy=-35.485210233054076 energy=-35.485210233054076 free_energy=-35.485210233054076 pbc="T T T"
Hf      10.91350536      11.59101320       9.84583533       0.00002799      -0.00000746       0.00039635
Hf      10.19140067      11.25069020      12.45512231       0.00024647       0.00003097      -0.00033278
Hf      11.32364706      13.62763844      11.65173708       0.00001490      -0.00011741      -0.00002563
Hf      12.83124230      11.32746857      11.76893737      -0.00022974       0.00012194      -0.00003879
Hf      11.30045617       9.15182445      11.06152795      -0.00005963      -0.00002804       0.00000086
6
Lattice="17.75342148725671 0.0 0.0 0.0 17.75342148725671 0.0 0.0 0.0 17.75342148725671" Properties=species:S:1:pos:R:3:forces:R:3 config_type=qcd dft_energy=-44.39779437 gap_energy=-43.57802038082794 relaxed_gap_energy=-43.64957293790958 energy=-43.64957293790958 free_energy=-43.64957293790958 pbc="T T T"
Hf      12.16137197       9.44594158       8.93598219       0.00016852       0.00031318      -0.00070772
Hf      10.89130090      11.16292790      10.65444574      -0.00062164      -0.00072894       0.00023708
Hf      10.02135126       8.52286933      10.46092757      -0.00039566       0.00079975       0.00030018
Hf       9.54991039      10.24759018       8.39050228       0.00007736      -0.00043589       0.00085604
Hf       7.58689958       8.40790993       9.11223360       0.00003531       0.00003711      -0.00007857
Hf       8.11507541      10.53245102      10.76200894       0.00073611       0.00001479      -0.00060702
6
Lattice="15.548118 0.0 0.0 0.0 15.548118 0.0 0.0 0.0 15.548118" Properties=species:S:1:pos:R:3:forces:R:3 config_type=qcd dft_energy=-44.3973863 gap_energy=-43.539896291081845 relaxed_gap_energy=-43.659794513197085 energy=-43.659794513197085 free_energy=-43.659794513197085 pbc="T T T"
Hf       6.15758159       7.60150019       8.88403838       0.00018691      -0.00013527       0.00000036
Hf       9.39053049       7.94663103       6.66407354      -0.00015799       0.00006823       0.00002527
Hf       6.86075283       9.10849134       6.65153987       0.00036179       0.00028694       0.00032048
Hf       8.42807579       9.21050283       8.94983956      -0.00002481       0.00081593       0.00004987
Hf       8.68736597       6.43962275       8.89657892      -0.00038275      -0.00025762      -0.00034522
Hf       7.12004731       6.33760587       6.59828372       0.00001685      -0.00077820      -0.00005076
7
Lattice="16.047796 0.0 0.0 0.0 16.047796 0.0 0.0 0.0 16.047796" Properties=species:S:1:pos:R:3:forces:R:3 config_type=qcd dft_energy=-53.11754401 gap_energy=-52.688805560118084 relaxed_gap_energy=-52.78658697843004 energy=-52.78658697843004 free_energy=-52.78658697843004 pbc="T T T"
Hf       6.54225267       6.08994039       8.01505402      -0.00003557       0.00004987      -0.00020495
Hf       8.77764648       6.49005859       9.76016636      -0.00007554      -0.00011485       0.00008932
Hf       8.47381449      10.16713444       6.95636846      -0.00012807       0.00011627      -0.00025059
Hf       8.85684574       7.39000807       7.10227047       0.00041415      -0.00043319      -0.00024118
Hf       9.97134123       9.00984392       9.10591873       0.00021740       0.00017148       0.00004760
Hf       7.19090106       8.65782663       8.94545129      -0.00032918       0.00014135       0.00053870
Hf       6.35448433       8.36247395       6.28205668      -0.00006319       0.00006907       0.00002109
8
Lattice="17.45147138825414 0.0 0.0 0.0 17.45147138825414 0.0 0.0 0.0 17.45147138825414" Properties=species:S:1:pos:R:3:forces:R:3 config_type=qcd dft_energy=-61.20384868 gap_energy=-60.71028399100955 relaxed_gap_energy=-60.848054189911906 energy=-60.848054189911906 free_energy=-60.848054189911906 pbc="T T T"
Hf       8.96569354      12.20964167      12.22265966      -0.00065242      -0.00018980      -0.00039717
Hf      12.67020466       9.42722743      10.66210527      -0.00015267       0.00052619       0.00008537
Hf      10.33070342      10.90883704       9.95200242       0.00054728      -0.00038561      -0.00024693
Hf      11.33267235      13.17399705      11.31036135      -0.00004761       0.00041766       0.00004999
Hf      13.50182166      11.63978752      12.27012485       0.00009598      -0.00043110      -0.00053652
Hf      11.38757648      12.76792683      13.99307297       0.00058784      -0.00001360       0.00044775
Hf      10.97499918      10.43913189      12.66202926      -0.00035733       0.00007404       0.00057933
Hf      12.98675594      11.84750801       9.46592603      -0.00002106       0.00000222       0.00001818
8
Lattice="16.449716 0.0 0.0 0.0 16.449716 0.0 0.0 0.0 16.449716" Properties=species:S:1:pos:R:3:forces:R:3 config_type=qcd dft_energy=-61.20064025 gap_energy=-60.59280854478706 relaxed_gap_energy=-60.84805449221068 energy=-60.84805449221068 free_energy=-60.84805449221068 pbc="T T T"
Hf       7.61351472       8.22389254       9.76065557       0.00001129      -0.00000160       0.00002647
Hf       7.61344858       8.22390148       6.68908788       0.00001637       0.00000363      -0.00003828
Hf       5.97465364       9.74722624       8.22491040       0.00013611       0.00001992       0.00000309
Hf       8.89377551       6.22828588       8.22483707      -0.00028294      -0.00004123       0.00000383
Hf       8.88749594      10.22352282       8.22484987      -0.00028338       0.00004211       0.00000124
Hf       5.97945079       6.69542394       8.22490078       0.00013159      -0.00002280       0.00000491
Hf      10.41829164       8.22830127       9.58393720       0.00013462       0.00000001       0.00038311
Hf      10.41823319       8.22830983       6.86568522       0.00013633      -0.00000004      -0.00038437
9
Lattice="17.489148 0.0 0.0 0.0 17.489148 0.0 0.0 0.0 17.489148" Properties=species:S:1:pos:R:3:forces:R:3 config_type=qcd dft_energy=-69.7357715 gap_energy=-68.94665997703758 relaxed_gap_energy=-69.20246236315622 energy=-69.20246236315622 free_energy=-69.20246236315622 pbc="T T T"
Hf      11.43480359       7.89673224       7.98243952       0.00046353      -0.00042665      -0.00019176
Hf       9.84122335       9.81832825       9.03007170      -0.00040838      -0.00041911       0.00013603
Hf       8.91393851       7.03352404       7.83878452      -0.00013224      -0.00015564       0.00028855
Hf       7.84045314      11.48570205       8.29092013      -0.00044086       0.00047477      -0.00011546
Hf       9.28373854       9.48647557       6.39525917       0.00015811       0.00012796       0.00037991
Hf       7.05106314       6.94092729       9.99637086       0.00045831       0.00050310      -0.00040709
Hf       6.96261577       8.98192532       8.00625694      -0.00012899      -0.00015201       0.00028183
Hf       7.61851799       9.59532541      10.67220425       0.00038311      -0.00035177      -0.00021914
Hf       9.75481196       7.46222583      10.48885876      -0.00035257       0.00039935      -0.00015287
10
Lattice="17.91609270319384 0.0 0.0 0.0 17.91609270319384 0.0 0.0 0.0 17.91609270319384" Properties=species:S:1:pos:R:3:forces:R:3 config_type=qcd dft_energy=-78.35757104 gap_energy=-77.24588182256477 relaxed_gap_energy=-77.59111218247719 energy=-77.59111218247719 free_energy=-77.59111218247719 pbc="T T T"
Hf       7.59754753      12.08543725       8.50492441      -0.00025955       0.00034160       0.00016573
Hf       8.13016645      10.94056692      11.27054381       0.00002597       0.00015209      -0.00030785
Hf      12.20835052       9.56076513       8.76151596       0.00001821       0.00017800       0.00013439
Hf      10.08315011      11.40016003       9.29743005      -0.00001448      -0.00012940      -0.00024363
Hf      11.59917556       7.29726820      10.78717884       0.00024249      -0.00064466       0.00010278
Hf       9.94899513       8.12008181       8.81845762      -0.00025040      -0.00003293      -0.00026340
Hf       7.60728895       9.46906158       8.98006762      -0.00000079      -0.00049617       0.00010274
Hf       8.70755575       8.05344028      11.34283609      -0.00013379       0.00010438       0.00005303
Hf       9.53616437      10.24142868       6.94325868       0.00020249       0.00015892       0.00016198
Hf      10.86493533       9.79431119      11.33194149       0.00016985       0.00036817       0.00009422
11
Lattice="17.245174 0.0 0.0 0.0 17.245174 0.0 0.0 0.0 17.245174" Properties=species:S:1:pos:R:3:forces:R:3 config_type=qcd dft_energy=-86.95285636 gap_energy=-86.83817944768654 relaxed_gap_energy=-86.94347876903757 energy=-86.94347876903757 free_energy=-86.94347876903757 pbc="T T T"
Hf      11.15266777       9.57794727       9.41765132      -0.00013925       0.00033447       0.00047835
Hf       6.23196026       8.14787061       7.20638708      -0.00009196      -0.00069003      -0.00038618
Hf       6.54537061      10.99643205       7.89446030      -0.00032222       0.00056994      -0.00031566
Hf       7.56200030       6.60076852       9.17834619       0.00014896       0.00009625      -0.00002428
Hf       8.78462668       6.64714401       6.61821472      -0.00056457      -0.00020214      -0.00003660
Hf      10.39314177       6.84182166       8.98920730      -0.00006143      -0.00013172       0.00019057
Hf      11.27121222       8.21809783       6.80558320       0.00020672       0.00006977      -0.00023293
Hf       9.04108069       8.43135101      10.92687759       0.00002740      -0.00005345      -0.00017126
Hf       8.59998205      11.07865444      10.00581175       0.00062686       0.00018712       0.00044339
Hf       6.48527900       9.13927119       9.88960119      -0.00014959      -0.00023674       0.00037925
Hf       8.78113568       9.16909848       7.91631639       0.00031908       0.00005654      -0.00032464
12
Lattice="18.296659 0.0 0.0 0.0 18.296659 0.0 0.0 0.0 18.296659" Properties=species:S:1:pos:R:3:forces:R:3 config_type=qcd dft_energy=-96.2118177 gap_energy=-95.73172499990147 relaxed_gap_energy=-96.0087558170018 energy=-96.0087558170018 free_energy=-96.0087558170018 pbc="T T T"
Hf       8.04397230       8.93615357       6.38455308      -0.00028723      -0.00014455      -0.00019890
Hf      10.82759378       8.86352160       7.09629347       0.00011237       0.00019806      -0.00023323
Hf      11.25924532      10.46315738       9.46909628      -0.00030815      -0.00007541       0.00014717
Hf       7.08212450       9.28168429      11.29687695       0.00014541      -0.00014451      -0.00011591
Hf       8.75389966       6.71263222      10.82613947      -0.00022046      -0.00002147       0.00009798
Hf       9.34822534       6.49902876       7.79012542       0.00007546       0.00011270       0.00003690
Hf      11.23865145       7.57600659       9.66819757       0.00033817       0.00008860       0.00005065
Hf       9.26124848      11.27060967       7.53738940       0.00013992      -0.00014011      -0.00021888
Hf       6.64330641      10.65575838       8.55186321       0.00029583      -0.00003610      -0.00001820
Hf       8.70431304      11.47067833      10.38184039       0.00018337      -0.00010516       0.00005627
Hf       9.92645982       9.18736608      11.69878820       0.00003535      -0.00006684       0.00013171
Hf       8.69091391       8.86335714       9.07879057      -0.00051006       0.00033480       0.00026445
13
Lattice="17.064563 0.0 0.0 0.0 17.064563 0.0 0.0 0.0 17.064563" Properties=species:S:1:pos:R:3:forces:R:3 config_type=qcd dft_energy=-105.67358157 gap_energy=-105.6559018018508 relaxed_gap_energy=-106.14856813665304 energy=-106.14856813665304 free_energy=-106.14856813665304 pbc="T T T"
Hf       8.53229732       8.53231733       8.53230815       0.00014301      -0.00052732      -0.00015896
Hf       8.53343790      10.01107527      10.92829613      -0.00009505       0.00007780      -0.00028144
Hf       8.53575783       7.05048036      10.92642795      -0.00033666       0.00032782      -0.00021955
Hf       8.52895769      10.01384241       6.13813072       0.00001266       0.00060250      -0.00035919
Hf       8.53099320       7.05350914       6.13627460       0.00048893      -0.00010379       0.00043797
Hf      10.01075366      10.92850561       8.53225778      -0.00026884      -0.00017522       0.00014935
Hf      10.01435490       6.13823351       8.52943243      -0.00066255       0.00063964      -0.00012550
Hf       7.05018476      10.92633529       8.53510514       0.00062374      -0.00046086       0.00020683
Hf       7.05371528       6.13615390       8.53213001       0.00063670      -0.00006756       0.00030417
Hf      10.92867993       8.53332162      10.01029025       0.00053948      -0.00056337       0.00002147
Hf      10.92603560       8.53483052       7.04985463      -0.00048788       0.00021768      -0.00013534
Hf       6.13871408       8.52955165      10.01479207      -0.00052126       0.00019666       0.00032298
Hf       6.13577736       8.53150289       7.05435963      -0.00007227      -0.00016397      -0.00016279
14
Lattice="18.2800787500674 0.0 0.0 0.0 18.2800787500674 0.0 0.0 0.0 18.2800787500674" Properties=species:S:1:pos:R:3:forces:R:3 config_type=qcd dft_energy=-114.29830781 gap_energy=-113.75731648279307 relaxed_gap_energy=-114.22946021410993 energy=-114.22946021410993 free_energy=-114.22946021410993 pbc="T T T"
Hf       9.38785237       7.68578005      11.71430230      -0.00005797      -0.00028850       0.00034174
Hf       9.72929740       6.92566380       8.94007018       0.00060197       0.00030894      -0.00012185
Hf       7.31247928       8.35745896       9.64654644      -0.00019293       0.00052900      -0.00033615
Hf      11.96821336       8.03869621      10.50126017       0.00033095      -0.00011515       0.00007832
Hf      11.58243236       8.67971871       7.65015313      -0.00041260      -0.00041911       0.00019897
Hf       7.73374261       9.93436489      11.92041111       0.00008310       0.00009183      -0.00012326
Hf       9.82589778       9.75970442       9.76393681      -0.00015802       0.00013098      -0.00006212
Hf       8.69382755       9.09866496       7.23879717      -0.00028561      -0.00017502      -0.00038589
Hf      10.88674953      10.39884457      12.15726554       0.00028575       0.00011896      -0.00002844
Hf      12.54582166      10.67500820       9.51592855       0.00011246      -0.00017675       0.00045619
Hf       8.71971039      12.36785658      11.72138592       0.00014123       0.00004372      -0.00001232
Hf      10.47048807      11.34678411       7.44817200      -0.00012660       0.00031114      -0.00030890
Hf       7.79888670      11.39859873       9.08026823       0.00002497      -0.00033689       0.00021215
Hf      10.61379734      12.66042859       9.91566089      -0.00034671      -0.00002315       0.00009155
15
Lattice="17.863875 0.0 0.0 0.0 17.863875 0.0 0.0 0.0 17.863875" Properties=species:S:1:pos:R:3:forces:R:3 config_type=qcd dft_energy=-123.729755 gap_energy=-123.39664128556112 relaxed_gap_energy=-123.8077568457602 energy=-123.8077568457602 free_energy=-123.8077568457602 pbc="T T T"
Hf       6.90776594       8.41070622       6.72006197       0.00009243      -0.00019859       0.00015262
Hf       7.33453376      11.15094982       7.59574022       0.00012646      -0.00010485      -0.00036407
Hf       7.62626730       6.57251135       9.13571995       0.00018362       0.00039613      -0.00004186
Hf       5.90911298       9.17618387       9.18512149       0.00004817      -0.00011901       0.00032989
Hf       8.93192579       8.93192295       8.93193599       0.00021200       0.00030130      -0.00000612
Hf       7.57381880      11.25639556      10.35095165       0.00026121       0.00005374       0.00013971
Hf       9.31961329       7.06232353       6.56227583      -0.00023456       0.00011161      -0.00028473
Hf       9.30355494       9.93048387       6.08128779       0.00001131       0.00009002       0.00032134
Hf      10.73283559       6.47956587       8.86938912      -0.00009962       0.00003855       0.00029902
Hf      10.23761832      11.29138396       8.72816826      -0.00036904      -0.00075814       0.00004299
Hf       9.73417346       7.24511498      11.33448102       0.00003810      -0.00021362      -0.00011117
Hf       9.78225970      10.14149332      11.59182966      -0.00012027       0.00017812      -0.00000021
Hf      11.75132678       8.92107627      10.07751450      -0.00020075       0.00005703      -0.00039577
Hf      11.51194221       8.81555778       7.32218834       0.00007541       0.00015928       0.00031966
Hf       7.32231367       8.59339316      11.49239672      -0.00002447       0.00000843      -0.00040130
16
Lattice="19.75389899431427 0.0 0.0 0.0 19.75389899431427 0.0 0.0 0.0 19.75389899431427" Properties=species:S:1:pos:R:3:forces:R:3 config_type=qcd dft_energy=-132.46404722 gap_energy=-132.61526385324865 relaxed_gap_energy=-132.75725605710534 energy=-132.75725605710534 free_energy=-132.75725605710534 pbc="T T T"
Hf       9.15236749      11.33748269      13.36002916      -0.00000990      -0.00052172       0.00003007
Hf      11.91605890      11.66297722      13.21744348      -0.00043983       0.00004106      -0.00005110
Hf       7.91214057      12.26879505      10.96233032       0.00024494       0.00009961      -0.00033962
Hf       9.82958524      13.22998786       9.18352713       0.00016353       0.00019023       0.00034533
Hf      10.91096945       8.76974114       8.05190612      -0.00015569       0.00012916       0.00009083
Hf      10.67436796       8.85290041      12.81176617       0.00004106      -0.00006875       0.00028536
Hf      11.30162011      11.51269328       7.75521360      -0.00023704      -0.00029349       0.00013687
Hf       8.55620948      10.44420009       8.71605834      -0.00046029      -0.00038422      -0.00007987
Hf      10.61956716      10.62552622      10.62409624       0.00006130      -0.00006499       0.00003705
Hf       9.37703747       7.84229889      10.18532688       0.00064290       0.00012727       0.00001726
Hf      13.29495970      10.01987971       9.00531627      -0.00029848       0.00011701      -0.00032124
Hf       7.90543857       9.55958221      11.61396397      -0.00010119       0.00058640      -0.00038290
Hf      12.15098092       7.83816599      10.44958134      -0.00002668       0.00010252       0.00064516
Hf      10.29613307      13.51912291      11.91542951       0.00008819      -0.00028585      -0.00005648
Hf      12.62811000      12.57960333      10.34421615       0.00054322       0.00010549       0.00037325
Hf      13.38771928       9.94541777      11.78924221      -0.00005605       0.00012028      -0.00072996
17
Lattice="19.95019441765496 0.0 0.0 0.0 19.95019441765496 0.0 0.0 0.0 19.95019441765496" Properties=species:S:1:pos:R:3:forces:R:3 config_type=qcd dft_energy=-141.5488803 gap_energy=-141.5300070537221 relaxed_gap_energy=-141.84960277288107 energy=-141.84960277288107 free_energy=-141.84960277288107 pbc="T T T"
Hf      10.90644527       8.32343359      12.80902411       0.00029648      -0.00030593      -0.00000824
Hf      13.21386123       8.84031272      11.53234304      -0.00047685      -0.00049768       0.00045357
Hf      13.92859094      11.44907206      10.97355877       0.00004664       0.00031394       0.00038138
Hf       9.24948451      10.40086596      13.56245331       0.00016286       0.00058543       0.00020648
Hf       8.49641467       8.70662728      11.51526722      -0.00037338      -0.00010502      -0.00012018
Hf      12.19452989      10.97821232      13.38396016       0.00020441       0.00014171       0.00031240
Hf      13.17537280       9.75478076       8.92638643       0.00027968      -0.00017511      -0.00016796
Hf      10.88242669       8.02653538       9.81749208       0.00010281       0.00050353       0.00009041
Hf      12.31665125      13.47020604      11.70684953       0.00050248      -0.00006091      -0.00063291
Hf      10.80022953      10.80556678      10.79395423      -0.00025376      -0.00001875      -0.00045153
Hf       9.94490195      12.93895754      13.01884361       0.00002947      -0.00023354       0.00040416
Hf       8.45904599       9.59642173       8.98004042      -0.00011807      -0.00026764      -0.00043149
Hf      12.12775685      12.57148506       8.84397718      -0.00002487      -0.00021535       0.00044306
Hf       9.90677763      13.85349779      10.41289363      -0.00048074       0.00017827      -0.00019035
Hf       7.99595194      11.64601345      11.12995480       0.00042655      -0.00027160       0.00038712
Hf       9.17405278      12.20516930       8.42119873      -0.00056947       0.00008098      -0.00023773
Hf      10.83069451      10.12748307       7.66779630       0.00024577       0.00034767      -0.00043819
18
Lattice="19.47647577176275 0.0 0.0 0.0 19.47647577176275 0.0 0.0 0.0 19.47647577176275" Properties=species:S:1:pos:R:3:forces:R:3 config_type=qcd dft_energy=-149.54861896 gap_energy=-148.8944645652184 relaxed_gap_energy=-149.71897858462165 energy=-149.71897858462165 free_energy=-149.71897858462165 pbc="T T T"
Hf      11.47046736      11.66597757       7.42109405       0.00004873      -0.00013671      -0.00036943
Hf      13.18539701      11.65484577       9.49161808      -0.00001649      -0.00027484       0.00023086
Hf       9.09378391      12.91545056       7.47933963       0.00023798       0.00007567      -0.00019989
Hf      10.78771827      13.20600278       9.79440521      -0.00043400      -0.00019281      -0.00034572
Hf       9.12478748      10.07626879       7.81389153       0.00041201       0.00024345       0.00031159
Hf      12.05280676       9.01617422       8.40094348      -0.00028192       0.00021486      -0.00014391
Hf      12.28024170      11.81663915      12.26465923       0.00044533       0.00015178       0.00008843
Hf      13.58729788       9.45591990      10.93886045      -0.00053646      -0.00012140       0.00012517
Hf      10.44271744      10.28039100      10.60525452      -0.00022170       0.00007173       0.00013106
Hf      10.03974311      10.57043874      13.78690016      -0.00034823       0.00029410       0.00008591
Hf       7.92585725      12.06811359       9.87933495       0.00009198       0.00009194       0.00022358
Hf      11.77772771       7.37145385      10.81395846      -0.00015157       0.00028500       0.00032130
Hf       9.49063199      12.79760869      12.23449270      -0.00028757      -0.00034711       0.00019535
Hf       9.60244704       7.63525696       9.22977365      -0.00001750       0.00018840      -0.00001045
Hf      12.00981858       8.90609696      13.10833986       0.00069021      -0.00028949      -0.00039010
Hf       7.72118097      10.61899588      12.33975120      -0.00001006       0.00019678      -0.00011425
Hf       7.52185426       9.19946136      10.02592362       0.00019642      -0.00026289       0.00005570
Hf       9.26221052       8.09156565      12.19753012       0.00018284      -0.00018844      -0.00019522
19
Lattice="19.87731 0.0 0.0 0.0 19.87731 0.0 0.0 0.0 19.87731" Properties=species:S:1:pos:R:3:forces:R:3 config_type=qcd dft_energy=-158.26288834 gap_energy=-157.80285831858697 relaxed_gap_energy=-157.87707531039996 energy=-157.87707531039996 free_energy=-157.87707531039996 pbc="T T T"
Hf      11.00217955       9.79196569      14.55133016      -0.00043735       0.00037050      -0.00015007
Hf      13.86958452      10.35036794      14.31538300      -0.00010408       0.00044392      -0.00019078
Hf       9.57744738      12.35336793      14.54966935       0.00032051      -0.00053301      -0.00026827
Hf      14.21714376      13.25685928      14.16777813       0.00001159       0.00017473       0.00034289
Hf      11.56439620      14.49477833      14.31266452       0.00031198      -0.00066917      -0.00026722
Hf      14.53397802      11.61159121      11.61191602      -0.00028211      -0.00005105      -0.00015912
Hf      12.98782298      14.39133367      11.61008645      -0.00032324      -0.00032046      -0.00002319
Hf      12.37736763       9.28758973      11.86895098       0.00023826       0.00000682      -0.00015319
Hf       9.87570429      13.78504579      11.86605738       0.00029495       0.00011140      -0.00019701
Hf       9.49866032      10.63090459      12.02598694       0.00067673       0.00045583      -0.00014675
Hf      11.18165595      14.27854356       9.14713643       0.00032973      -0.00057869       0.00036700
Hf       9.19472373      12.13709577       9.38382311       0.00037993      -0.00048574       0.00033112
Hf      13.83443225      13.04072408       9.00258237       0.00004731      -0.00002229      -0.00025156
Hf      10.61949013       9.57571001       9.38545341      -0.00030997       0.00051421       0.00031956
Hf      13.48693518      10.13419192       9.14979766      -0.00022836       0.00048982       0.00028858
Hf      12.15965334      12.11361538      15.90963076      -0.00019344      -0.00009206       0.00034480
Hf      11.95334160      11.99701353      13.12743237      -0.00025692       0.00019849       0.00009989
Hf      11.75614452      11.88559900      10.46569600      -0.00025355       0.00008288      -0.00010860
Hf      11.55020410      11.76927770       7.68345811      -0.00022198      -0.00009612      -0.00017808
19
Lattice="22.06547157297446 0.0 0.0 0.0 22.06547157297446 0.0 0.0 0.0 22.06547157297446" Properties=species:S:1:pos:R:3:forces:R:3 config_type=qcd dft_energy=-158.2507048 gap_energy=-157.3197902565543 relaxed_gap_energy=-157.6167074166464 energy=-157.6167074166464 free_energy=-157.6167074166464 pbc="T T T"
Hf      14.48883771      13.05130884      11.06004411       0.00036631      -0.00003493      -0.00005795
Hf      12.55617034      13.56062306       9.03679276       0.00016809       0.00015660      -0.00011984
Hf      13.98694870      11.03600485       8.92193200      -0.00021749       0.00015567       0.00013564
Hf      13.39817901      12.05870146      13.49178557       0.00005335       0.00000920      -0.00003440
Hf      14.49788245      10.12464159      11.62520183      -0.00037460       0.00023432       0.00013163
Hf      10.98941839      11.00612921       8.23660878       0.00014573      -0.00015120      -0.00032219
Hf      11.44061020      13.98227890      11.95002126      -0.00015389      -0.00002107       0.00005311
Hf       9.83439138      13.36719042       9.56580995      -0.00004010       0.00045120      -0.00032014
Hf      12.19003521      11.56111718      10.99211698      -0.00008307      -0.00004961       0.00029556
Hf       8.45778885      12.48949117      12.01049873      -0.00032559      -0.00057485      -0.00000865
Hf      10.65013155      11.91211654      13.88193570       0.00016115       0.00000184       0.00035739
Hf       8.03282516      11.29634362       9.12839368      -0.00029026       0.00030512      -0.00019824
Hf       9.91547185      10.42294166      11.03830064       0.00075334      -0.00049429       0.00031455
Hf      11.90874293       9.36629128      13.10073417       0.00003830      -0.00004611      -0.00012644
Hf       9.19316792       8.63637887       9.01907895      -0.00014981       0.00009053      -0.00012545
Hf      12.15370614       8.75391520      10.05261663      -0.00016798      -0.00046969      -0.00007731
Hf       8.87477170       9.79446162      13.58337951       0.00015608       0.00018677      -0.00027694
Hf       7.34884112       9.47699660      11.20450162       0.00004767      -0.00014240       0.00011184
Hf       9.70405933       7.72504788      11.72222705      -0.00008722       0.00039290       0.00026785
20
Lattice="19.37832687658321 0.0 0.0 0.0 19.37832687658321 0.0 0.0 0.0 19.37832687658321" Properties=species:S:1:pos:R:3:forces:R:3 config_type=qcd dft_energy=-168.07890885 gap_energy=-167.32464043597784 relaxed_gap_energy=-167.40647641784727 energy=-167.40647641784727 free_energy=-167.40647641784727 pbc="T T T"
Hf      11.21098552      11.32796065      14.76996386      -0.00027502       0.00018539      -0.00048412
Hf      11.12747963      15.34780801      10.60541028       0.00040980      -0.00061671      -0.00002394
Hf       9.02973546       9.87472046      10.75468737       0.00005059       0.00016430       0.00055335
Hf      10.37074140      14.07681206      13.31117075       0.00070353      -0.00010180       0.00007813
Hf      11.37764939      10.68995559      12.08599957      -0.00021770      -0.00073284       0.00022586
Hf      12.18323775      13.30164059       8.86715934      -0.00007850      -0.00046085       0.00018171