3
Lattice="16.12103556901573 0.0 0.0 0.0 16.12103556901573 0.0 0.0 0.0 16.12103556901573" Properties=species:S:1:pos:R:3:forces:R:3 config_type=qcd dft_energy=-3.70857167 gap_energy=-3.5811669860443223 relaxed_gap_energy=-3.6971119903157037 energy=-3.6971119903157037 free_energy=-3.6971119903157037 pbc="T T T"
In      10.08436784      10.55629178       8.18682727       0.00003100       0.00008799      -0.00002023
In       9.10479845       7.74184620       8.80314956      -0.00005572       0.00013381       0.00023127
In       8.85577771       9.93317038      10.90034491       0.00002472      -0.00022180      -0.00021104
4
Lattice="15.639625 0.0 0.0 0.0 15.639625 0.0 0.0 0.0 15.639625" Properties=species:S:1:pos:R:3:forces:R:3 config_type=qcd dft_energy=-5.94308675 gap_energy=-5.769197420973578 relaxed_gap_energy=-6.03797997767054 energy=-6.03797997767054 free_energy=-6.03797997767054 pbc="T T T"
In       7.71467843       9.76163236       7.33322443       0.00008203       0.00020898       0.00009122
In       9.08382049       7.95413663       9.37007904      -0.00011441       0.00008668      -0.00008107
In       8.60386893       6.21126280       6.91616796      -0.00031381      -0.00006426       0.00003786
In       5.87688216       7.35221785       7.65977928       0.00034619      -0.00023140      -0.00004801
5
Lattice="17.65869077275068 0.0 0.0 0.0 17.65869077275068 0.0 0.0 0.0 17.65869077275068" Properties=species:S:1:pos:R:3:forces:R:3 config_type=qcd dft_energy=-7.95618518 gap_energy=-7.961747435838976 relaxed_gap_energy=-8.515845065613636 energy=-8.515845065613636 free_energy=-8.515845065613636 pbc="T T T"
In       8.78370794       9.07274243      10.92315302      -0.00021587      -0.00011633      -0.00048681
In       6.70556803       9.42648254       8.71365318       0.00082622      -0.00011471       0.00005672
In       8.87503906       8.58628769       6.73550962      -0.00016172       0.00020882       0.00041332
In      10.41676609      10.35897055       8.68634750      -0.00037737      -0.00020542      -0.00009805
In       9.36564581       6.70224373       9.08806361      -0.00007126       0.00022764       0.00011481
5
Lattice="19.31326805088315 0.0 0.0 0.0 19.31326805088315 0.0 0.0 0.0 19.31326805088315" Properties=species:S:1:pos:R:3:forces:R:3 config_type=qcd dft_energy=-7.9300947 gap_energy=-7.570974262062723 relaxed_gap_energy=-8.515845179021387 energy=-8.515845179021387 free_energy=-8.515845179021387 pbc="T T T"
In      11.16606953       8.22100997       9.33195872       0.00020785      -0.00009513      -0.00005496
In      11.19886046      11.19774257      10.01188209       0.00005637      -0.00009653       0.00010104
In       8.14733269      11.09235505       9.98177830      -0.00012913      -0.00011661      -0.00012928
In       8.88971068       9.31248799       7.61404390      -0.00013977       0.00012945       0.00005455
In       8.88119676       8.45957455      11.34350712       0.00000468       0.00017882       0.00002865
5
Lattice="19.90294363469744 0.0 0.0 0.0 19.90294363469744 0.0 0.0 0.0 19.90294363469744" Properties=species:S:1:pos:R:3:forces:R:3 config_type=qcd dft_energy=-7.92962878 gap_energy=-7.5131394763765265 relaxed_gap_energy=-8.515845238962061 energy=-8.515845238962061 free_energy=-8.515845238962061 pbc="T T T"
In      11.47269635       9.89244429      11.55186703       0.00005340       0.00005162       0.00003877
In      10.39421798       9.07169221       7.97425325      -0.00010966      -0.00003949       0.00003867
In      10.71202329      11.80562999       9.29668628       0.00008969      -0.00002266       0.00004728
In       9.19065495       8.09735813      10.60612209       0.00005756       0.00003687      -0.00009147
In       7.98776652      10.89023447      10.32843043      -0.00009099      -0.00002634      -0.00003325
6
Lattice="16.8092791400027 0.0 0.0 0.0 16.8092791400027 0.0 0.0 0.0 16.8092791400027" Properties=species:S:1:pos:R:3:forces:R:3 config_type=qcd dft_energy=-10.59249453 gap_energy=-10.479927542447298 relaxed_gap_energy=-11.051539668469657 energy=-11.051539668469657 free_energy=-11.051539668469657 pbc="T T T"
In       7.34650853       7.96174418      10.31739141       0.00017742      -0.00002513       0.00001141
In       8.84585474       6.23376053       8.14602714       0.00013552      -0.00004188       0.00010063
In       6.49166838       8.14847914       7.28680853       0.00010756       0.00016045       0.00005408
In       9.46276447       8.84804783       6.49202231      -0.00003802       0.00004287      -0.00001245
In      10.31809503       8.66041595       9.52185847      -0.00042533      -0.00010177      -0.00008104
In       7.96294627      10.57538978       8.66372955       0.00004285      -0.00003454      -0.00007262
6
Lattice="18.7087020861384 0.0 0.0 0.0 18.7087020861384 0.0 0.0 0.0 18.7087020861384" Properties=species:S:1:pos:R:3:forces:R:3 config_type=qcd dft_energy=-10.55283578 gap_energy=-10.257107777885109 relaxed_gap_energy=-11.051539186639003 energy=-11.051539186639003 free_energy=-11.051539186639003 pbc="T T T"
In      12.78518154      11.89500491      11.32245166      -0.00030683      -0.00061261       0.00003788
In      11.87812743       9.79518406       9.14960349       0.00045844      -0.00004790       0.00061643
In      11.41459288       9.19752408      12.21266998       0.00026831       0.00050625      -0.00051133
In      10.32852878      12.52570872       9.44831740      -0.00022442       0.00035707      -0.00005053
In       8.95751840       9.82701785      10.33763773      -0.00047510      -0.00010873       0.00008052
In       9.86249197      11.92714112      12.50978190       0.00027960      -0.00009407      -0.00017298
7
Lattice="17.09980255071067 0.0 0.0 0.0 17.09980255071067 0.0 0.0 0.0 17.09980255071067" Properties=species:S:1:pos:R:3:forces:R:3 config_type=qcd dft_energy=-13.13771803 gap_energy=-12.63795012693847 relaxed_gap_energy=-12.801641091101978 energy=-12.801641091101978 free_energy=-12.801641091101978 pbc="T T T"
In      10.81081750      11.13100746       8.16780478      -0.00063993      -0.00020702      -0.00015424
In       8.03553221      11.08221240       8.88432947       0.00040329       0.00046665      -0.00015516
In      11.38813547      10.88031552      11.17825826       0.00024807      -0.00047211       0.00014621
In       8.54407049      10.86009275      11.53522446       0.00004511      -0.00016227       0.00006808
In      11.77168765       8.39235502       9.32573934       0.00058229       0.00069708      -0.00008805
In       8.81374389       8.38201295       8.32108873      -0.00003789      -0.00050380       0.00010710
In       9.39300801       8.12996566      11.33242127      -0.00060094       0.00018148       0.00007606
8
Lattice="17.30232905990432 0.0 0.0 0.0 17.30232905990432 0.0 0.0 0.0 17.30232905990432" Properties=species:S:1:pos:R:3:forces:R:3 config_type=qcd dft_energy=-15.57390147 gap_energy=-14.641274184128552 relaxed_gap_energy=-15.1259582573085 energy=-15.1259582573085 free_energy=-15.1259582573085 pbc="T T T"
In       9.35303996       7.71636530      10.52542651       0.00016329      -0.00009487      -0.00006000
In      12.08040693       9.08293356       7.96821766      -0.00009410      -0.00003694       0.00001971
In      10.96983605      11.36807982      11.25654869       0.00008141       0.00002124      -0.00005421
In       9.08482479       9.64177969      12.90238689       0.00002542      -0.00002356       0.00028851
In      12.26524085       8.71246135      11.02909645       0.00001460      -0.00011364       0.00008492
In      11.32997629      12.27329528       8.45119348      -0.00004017      -0.00000505       0.00004023
In       7.88444396      11.65535005      10.61713946      -0.00023519       0.00019214      -0.00001843
In       9.26724567       9.94556754       8.62262828       0.00008473       0.00006067      -0.00030072
9
Lattice="17.81455678279721 0.0 0.0 0.0 17.81455678279721 0.0 0.0 0.0 17.81455678279721" Properties=species:S:1:pos:R:3:forces:R:3 config_type=qcd dft_energy=-17.3358736 gap_energy=-16.97211018252528 relaxed_gap_energy=-17.691026929121914 energy=-17.691026929121914 free_energy=-17.691026929121914 pbc="T T T"
In       8.88205155       8.16730231       7.14876997       0.00028491       0.00071128      -0.00011704
In       9.65149291      11.17628136       6.98372135      -0.00025631       0.00003599      -0.00082288
In      10.45580294       9.69794645       9.43140019       0.00014209       0.00033695       0.00006343
In      11.23011019       6.91116407       8.75458793       0.00054300      -0.00054147      -0.00011245
In       8.14484280      11.50412245      10.05652004       0.00007278      -0.00055202       0.00051614
In       8.36512188       5.80426798       9.23592976      -0.00044751      -0.00019521      -0.00001902
In       7.28741659       8.62343459       9.66641425      -0.00049784      -0.00042441       0.00050063
In       9.50181269       7.83590269      11.57977517      -0.00007421       0.00046494       0.00032150
In       6.64685397      10.44508361       7.30838688       0.00023308       0.00016394      -0.00033032
9
Lattice="18.15169090023318 0.0 0.0 0.0 18.15169090023318 0.0 0.0 0.0 18.15169090023318" Properties=species:S:1:pos:R:3:forces:R:3 config_type=qcd dft_energy=-17.32432586 gap_energy=-17.075834464021586 relaxed_gap_energy=-17.373692778535013 energy=-17.373692778535013 free_energy=-17.373692778535013 pbc="T T T"
In       8.97129461      12.54463446      12.29683281       0.00047702       0.00040129       0.00056638
In      10.20509512       9.98071838      12.07604967      -0.00028658       0.00012357      -0.00010047
In      11.15711711      10.78190319       8.96728715      -0.00065877      -0.00031533      -0.00013361
In       9.14645040       8.03324755      10.17793264       0.00044677       0.00003361      -0.00077214
In      11.96132552      12.69956469      11.14236913      -0.00031604      -0.00018237      -0.00021261
In       8.22719798      10.96339034       9.59708647      -0.00039187      -0.00026211       0.00027504
In      13.12684020       9.96802217      11.97772437      -0.00007838       0.00020256       0.00036208
In       9.66859615      13.68102711       9.35835017       0.00052027      -0.00001196      -0.00012643
In      12.17057226       8.17107049       9.68674148       0.00028758       0.00001074       0.00014177
9
Lattice="22.43942434609373 0.0 0.0 0.0 22.43942434609373 0.0 0.0 0.0 22.43942434609373" Properties=species:S:1:pos:R:3:forces:R:3 config_type=qcd dft_energy=-17.30682653 gap_energy=-16.783202287332028 relaxed_gap_energy=-17.691025372131588 energy=-17.691025372131588 free_energy=-17.691025372131588 pbc="T T T"
In      10.38875709      12.83452371      11.21779780      -0.00033411      -0.00084807      -0.00010055
In      13.12695730      11.24413070      11.26027969       0.00041290       0.00074228       0.00036554
In      12.02882600      12.84118644      13.69387951       0.00019308       0.00013795      -0.00018416
In      12.09075418       9.73927648      13.88061073       0.00003998      -0.00094083      -0.00024434
In      12.20152546       9.78805613       8.57044967       0.00027397       0.00056573      -0.00011805
In       9.12138267      11.05354448      13.27214701      -0.00021041       0.00093893      -0.00016140
In      10.67441510       9.49251533      11.19117910      -0.00032559      -0.00037651       0.00043630
In      12.13430361      12.88730324       8.81434649       0.00011931      -0.00016924      -0.00029474
In       9.21048813      11.09687306       9.07671956      -0.00016915      -0.00005024       0.00030140
9
Lattice="18.48779217553442 0.0 0.0 0.0 18.48779217553442 0.0 0.0 0.0 18.48779217553442" Properties=species:S:1:pos:R:3:forces:R:3 config_type=qcd dft_energy=-17.29452594 gap_energy=-16.877018485338336 relaxed_gap_energy=-17.711432738104453 energy=-17.711432738104453 free_energy=-17.711432738104453 pbc="T T T"
In      12.03418766       9.04344530      12.76413819      -0.00019937      -0.00019820       0.00009466
In      11.35906032      11.79979582      11.67456352       0.00032663       0.00005005       0.00019772
In      13.58719082      10.33992756      10.21307186       0.00046475       0.00034514      -0.00032342
In       8.35370547      12.05132037      12.05207419      -0.00010046      -0.00026476      -0.00027187
In       9.90650257      13.34714630       9.50020706      -0.00018382      -0.00006387      -0.00025803
In      11.59503758       7.80037046       9.78614392      -0.00071116       0.00021621       0.00056455
In       7.91350371      10.80694859       9.07488214       0.00032435       0.00020020       0.00032793
In       9.40821198       9.31364091      11.26004291       0.00018434      -0.00049088      -0.00033817
In      10.92734053      10.58113981       8.76094121      -0.00010526       0.00020610       0.00000664
9
Lattice="18.80852365937344 0.0 0.0 0.0 18.80852365937344 0.0 0.0 0.0 18.80852365937344" Properties=species:S:1:pos:R:3:forces:R:3 config_type=qcd dft_energy=-17.29104029 gap_energy=-16.86117037954325 relaxed_gap_energy=-17.368528945070477 energy=-17.368528945070477 free_energy=-17.368528945070477 pbc="T T T"
In       8.68732784      10.05308941       6.94885504       0.00045650      -0.00028767      -0.00034792
In       9.20287865       7.05943321       7.64532300      -0.00076710      -0.00017213       0.00008115
In       5.83410917       8.91945253       7.40241537      -0.00012943       0.00018119       0.00034217
In      11.65111173      10.12229301       7.44874415       0.00023009       0.00006463       0.00080083
In      10.98799280       8.22756506       9.74678659      -0.00015965       0.00021561      -0.00009392
In       6.99323684       7.32034727       9.78541877      -0.00022716       0.00012393      -0.00034761
In      10.71448127      11.33899487      10.39125622      -0.00047153       0.00032499       0.00003707
In       8.07003927      10.14141646       9.83106372       0.00007763      -0.00044151      -0.00037673
In       9.10361296       8.06219870      12.04492766       0.00099065      -0.00000903      -0.00009505
10
Lattice="30.0 0.0 0.0 0.0 30.0 0.0 0.0 0.0 30.0" Properties=species:S:1:pos:R:3:forces:R:3 config_type=qcd dft_energy=-19.80784486 gap_energy=-19.34475345990947 relaxed_gap_energy=-19.792618486152456 energy=-19.792618486152456 free_energy=-19.792618486152456 pbc="T T T"
In       7.74851489       9.45874483       7.17544637      -0.00037176      -0.00054608      -0.00051683
In       9.10978525       6.49144145       7.66783074      -0.00030584      -0.00018575      -0.00053227
In       9.82640750      11.88129757       8.21484051      -0.00068513      -0.00031621       0.00021170
In      10.46070698       8.84572635       8.60221411      -0.00018352      -0.00048914      -0.00025122
In       8.09499104      10.18863821      10.19549876       0.00042064       0.00027520       0.00000106
In      10.46793583      12.44508552      11.16777793       0.00030200      -0.00005063       0.00030222
In       6.25888179       7.53972502       9.05920959       0.00001250       0.00026050      -0.00033648
In      12.60742528      10.57089063       9.41479846      -0.00014305      -0.00014594       0.00050476
In      10.70572033       9.43843388      11.75765119       0.00031245       0.00055604       0.00070702
In       8.76960826       7.18999371      10.79470949       0.00064172       0.00064202      -0.00008996
10
Lattice="30.0 0.0 0.0 0.0 30.0 0.0 0.0 0.0 30.0" Properties=species:S:1:pos:R:3:forces:R:3 config_type=qcd dft_energy=-19.78455201 gap_energy=-19.082017504578715 relaxed_gap_energy=-19.77769544501202 energy=-19.77769544501202 free_energy=-19.77769544501202 pbc="T T T"
In      10.14343474      10.14748564       5.91894404       0.00000080      -0.00017623      -0.00002470
In      10.56666063       7.76645234       7.91829188       0.00001823       0.00020238       0.00003379
In       8.61549705       9.75402704       9.01711505      -0.00002049      -0.00007752       0.00012952
In      12.72091735       9.93652868       8.77882534       0.00005216      -0.00013053       0.00003985
In      10.44141260      11.97370601       8.38115214      -0.00012435       0.00024901       0.00002213
In       8.23834460       7.70675336      11.27441749      -0.00008581      -0.00003700      -0.00008813
In      10.19350934      11.74676924      11.37619738       0.00021152      -0.00000912      -0.00009512
In      11.05015306       8.87239164      10.98211355       0.00006395       0.00003755       0.00005150
In       7.15956615      10.83581148      11.26655468      -0.00007081      -0.00003257       0.00003846
In       9.28245895       9.67202902      13.49834292      -0.00004522      -0.00002598      -0.00010731
10
Lattice="30.0 0.0 0.0 0.0 30.0 0.0 0.0 0.0 30.0" Properties=species:S:1:pos:R:3:forces:R:3 config_type=qcd dft_energy=-19.78355164 gap_energy=-19.17571161343446 relaxed_gap_energy=-19.792621463347466 energy=-19.792621463347466 free_energy=-19.792621463347466 pbc="T T T"
In      12.14951954      10.69528559      10.56808237       0.00004770       0.00009941      -0.00012717
In       9.23110288       7.58623458       9.39810573      -0.00002077      -0.00004651      -0.00026265
In      12.48783740       8.26174903       9.08260336      -0.00043750      -0.00007497       0.00061868
In      10.83699131       8.21480746      11.94219033       0.00032534      -0.00013293      -0.00005155
In      12.66635123      13.34830555      11.53659909       0.00013550       0.00019201       0.00057251
In      10.94312925      11.23704746      13.39972278       0.00014635       0.00029923      -0.00024531
In       9.03001293      10.59200060      11.01166828      -0.00007504      -0.00059011      -0.00011286
In      10.12811027      10.22403141       8.10177320      -0.00010451       0.00013830      -0.00062458
In      10.22839257      13.03246157       9.45506118      -0.00030015      -0.00038656       0.00013990
In       9.44514926      13.70698843      12.34895779       0.00028308       0.00050212       0.00009303
11
Lattice="17.245174 0.0 0.0 0.0 17.245174 0.0 0.0 0.0 17.245174" Properties=species:S:1:pos:R:3:forces:R:3 config_type=qcd dft_energy=-22.17167404 gap_energy=-21.485702191042957 relaxed_gap_energy=-21.917345732529693 energy=-21.917345732529693 free_energy=-21.917345732529693 pbc="T T T"
In      11.33105853       9.66784151       9.20959728      -0.00018646      -0.00021840      -0.00047737
In       6.13405137       8.35304324       7.03893183       0.00005547      -0.00068392       0.00025177
In       5.86627348      11.20687747       8.25357343      -0.00036722       0.00043890      -0.00025718
In       6.92580744       5.71589767       8.64452967      -0.00045536       0.00066648       0.00000458
In       8.93597576       6.70985403       6.38337049       0.00085601       0.00034983       0.00012811
In       9.68037723       7.04253808       9.38087826       0.00028345      -0.00012732      -0.00028482
In      11.85385183       7.68570734       6.86602664      -0.00042954      -0.00012376       0.00008361
In       9.61024777       9.03392798      11.81372679      -0.00066606       0.00015783      -0.00042802
In       8.52742389      11.30928662       9.86449058       0.00025779      -0.00002158       0.00059706
In       7.09155319       8.56050785       9.98311478       0.00061940      -0.00028211       0.00024171
In       8.89183650       9.56297523       7.41021724       0.00003252      -0.00015594       0.00014057
12
Lattice="18.73308339144524 0.0 0.0 0.0 18.73308339144524 0.0 0.0 0.0 18.73308339144524" Properties=species:S:1:pos:R:3:forces:R:3 config_type=qcd dft_energy=-24.62617497 gap_energy=-23.822536164807076 relaxed_gap_energy=-24.42053601845902 energy=-24.42053601845902 free_energy=-24.42053601845902 pbc="T T T"
In       7.97332167       7.27915287       7.48390859       0.00077851       0.00013819       0.00007156
In       6.24674227       9.14222498       9.13672721       0.00028890       0.00074409       0.00041832
In       9.90894536       9.43383339       7.93446742      -0.00040718      -0.00043983       0.00051484
In       7.21604271      11.93520640      10.69973084       0.00027527      -0.00037663      -0.00019641
In      12.61678759      10.31729858       9.01253935       0.00050828      -0.00022181      -0.00024463
In      11.38454577       8.01047922      10.54820902       0.00003880       0.00011632       0.00011401
In      10.93667692      10.88491513      11.97971765      -0.00000457      -0.00066156      -0.00054675
In       7.57822439      11.25749203       7.27015401      -0.00027229      -0.00002583      -0.00009312
In       8.72310254       6.23009741      10.32422651      -0.00004249      -0.00018107      -0.00019051
In      11.23203404       6.65321136       7.89757949       0.00020313       0.00008420       0.00012939
In       9.88355720      12.01965227       9.37107458      -0.00067212       0.00041094       0.00013399
In       8.69851990       9.23493673      10.74016572      -0.00069425       0.00041299      -0.00011069
13
Lattice="18.1328748527911 0.0 0.0 0.0 18.1328748527911 0.0 0.0 0.0 18.1328748527911" Properties=species:S:1:pos:R:3:forces:R:3 config_type=qcd dft_energy=-27.1727498 gap_energy=-26.183946477877164 relaxed_gap_energy=-26.78986814158817 energy=-26.78986814158817 free_energy=-26.78986814158817 pbc="T T T"
In      11.21434612      10.92712164       9.62279453       0.00029518       0.00022290       0.00054236
In      14.17558321      11.47266130      10.43533448       0.00045906      -0.00011043      -0.00042577
In      13.86238854       8.93822177      12.00470036      -0.00003212      -0.00046934      -0.00010919
In      10.38253636      13.68404866      10.78506747       0.00036965      -0.00020794      -0.00006227
In      13.35189797      14.50947595      10.09727988       0.00020419      -0.00006280       0.00023193
In       9.44332797      12.31507620      13.44582813      -0.00016446       0.00075024       0.00023508
In      10.61023630      15.57350682      13.13827473      -0.00055229      -0.00014265      -0.00028808
In      15.58519371      12.48633923      13.02546077      -0.00094630       0.00012735      -0.00029219
In      13.53915705      14.81045654      13.23627591       0.00016975       0.00007862      -0.00011927
In      10.90133197       9.77590621      12.62249426       0.00013608      -0.00002689       0.00000625
In      12.36059231      12.33203785      12.37231216      -0.00003150      -0.00014681       0.00003578
In      11.84242569      13.17827812      15.31158077       0.00002497      -0.00032743       0.00084998
In      13.41055973      10.67644668      14.58217350       0.00006778       0.00031519      -0.00060462
14
Lattice="18.85773044737432 0.0 0.0 0.0 18.85773044737432 0.0 0.0 0.0 18.85773044737432" Properties=species:S:1:pos:R:3:forces:R:3 config_type=qcd dft_energy=-29.70701954 gap_energy=-28.45451272005024 relaxed_gap_energy=-28.73601095291326 energy=-28.73601095291326 free_energy=-28.73601095291326 pbc="T T T"
In       9.36277180      12.68122081      12.73032014       0.00029553      -0.00040325      -0.00003413
In       7.26267842      12.99760661      10.28217109      -0.00004811       0.00017796       0.00027504
In      10.27653491       8.48729048      12.99877383       0.00019029      -0.00000040      -0.00021750
In      11.71983320      11.14214691      13.85086817       0.00013292       0.00030738      -0.00014648
In      13.32801900       9.16230857      11.87907092      -0.00015439       0.00005339      -0.00039265
In      12.79969463       8.33214978       8.91820142      -0.00023413      -0.00002422       0.00061728
In      14.12849741      11.51995024       9.75654180      -0.00043767      -0.00013385      -0.00039735
In      12.66310706      13.25313965      11.75001486       0.00005362       0.00023163       0.00032361
In      11.61242904      11.04728794       7.96382238       0.00054669      -0.00000524       0.00011424
In       7.95985802      10.07767003      11.85594896      -0.00053746       0.00029629      -0.00015482
In      10.97368935      10.62082868      10.86105403      -0.00019751       0.00001047       0.00030403
In       9.91228071       7.80685021       9.86898347       0.00037409      -0.00011263      -0.00020054
In      10.28328788      13.32621713       9.70788085      -0.00020041      -0.00050347      -0.00000519
In       8.63919974      10.60289551       8.89191081       0.00021655       0.00010593      -0.00008554
14
Lattice="23.49173985284811 0.0 0.0 0.0 23.49173985284811 0.0 0.0 0.0 23.49173985284811" Properties=species:S:1:pos:R:3:forces:R:3 config_type=qcd dft_energy=-29.68376684 gap_energy=-28.661382402668487 relaxed_gap_energy=-28.815405117736276 energy=-28.815405117736276 free_energy=-28.815405117736276 pbc="T T T"
In       9.85370473      10.15414835      10.21969960      -0.00040038      -0.00043425       0.00020481
In       9.85633643      10.15744526      13.27417943       0.00015714       0.00051941       0.00048483
In      12.10493806      11.74529995       8.13005553      -0.00004095       0.00004890       0.00007180
In      12.85596839       9.35344392      10.19354743      -0.00017964       0.00020341      -0.00033134
In      12.85742649       9.35243038      13.29717307       0.00037709      -0.00046783      -0.00014083
In      14.91412402      11.74482737      10.26166036      -0.00009086      -0.00004795      -0.00011000
In      14.91500906      11.74514623      13.22877190       0.00010541       0.00009412       0.00011439
In       9.85413197      13.33991355      13.27155477      -0.00049024       0.00040697      -0.00034729
In      12.10475897      11.74556174      15.36188077       0.00012045      -0.00012364       0.00008010
In      12.85653509      14.13572529      13.29934697      -0.00036196      -0.00044460       0.00014762
In      12.03055334      11.74556444      11.74548243      -0.00007570       0.00061375      -0.00036539
In      12.85866119      14.13957521      10.19564099       0.00028795       0.00022483       0.00042185
In       9.85675740      13.33707660      10.21752737       0.00055748      -0.00063702      -0.00017962
In       7.52327384      11.74602070      11.74565834       0.00003423       0.00004390      -0.00005091
15
Lattice="24.29559193688336 0.0 0.0 0.0 24.29559193688336 0.0 0.0 0.0 24.29559193688336" Properties=species:S:1:pos:R:3:forces:R:3 config_type=qcd dft_energy=-31.78955477 gap_energy=-30.56932442578412 relaxed_gap_energy=-31.260847458909897 energy=-31.260847458909897 free_energy=-31.260847458909897 pbc="T T T"
In      15.24745713      10.00003761      12.14778536       0.00006287      -0.00047457      -0.00000489
In      14.18971996      12.43338995      13.86784710       0.00025209       0.00026188      -0.00012593
In      16.42938942      13.42682163      12.14778964      -0.00012401       0.00000390       0.00002116
In      10.14727188       8.79652270      12.14778874       0.00000293       0.00027685      -0.00001437
In      12.48157055       9.91600010      13.90895112      -0.00018728      -0.00019440      -0.00031413
In      14.18974696      12.43340451      10.42772871      -0.00006919       0.00021350       0.00021804
In      12.48157180       9.91598292      10.38661538      -0.00025823       0.00012397       0.00043515
In      11.68667444      14.20639383      10.04117090      -0.00030560      -0.00015008       0.00018113
In      13.57004149      15.25671325      12.14781161       0.00019862       0.00019663      -0.00005682
In      10.06363598      11.64667871       9.25203670       0.00010990      -0.00002886       0.00021949
In      11.67340003      12.16048451      12.14785098       0.00014991      -0.00013290      -0.00058907
In       9.39095794      14.61723489      12.14781102       0.00024039       0.00038253      -0.00003247
In      10.06365488      11.64666324      15.04355182      -0.00003088      -0.00007573      -0.00004438
In      11.68668879      14.20634491      14.25440268      -0.00034142       0.00021298       0.00013288
In       8.91515827      11.55426676      12.14779780       0.00029991      -0.00061572      -0.00002580
15
Lattice="17.80536171679637 0.0 0.0 0.0 17.80536171679637 0.0 0.0 0.0 17.80536171679637" Properties=species:S:1:pos:R:3:forces:R:3 config_type=qcd dft_energy=-31.75873872 gap_energy=-30.65519770631349 relaxed_gap_energy=-31.260846905423822 energy=-31.260846905423822 free_energy=-31.260846905423822 pbc="T T T"
In      10.87867336       7.24915540       5.25171526      -0.00004822      -0.00014371      -0.00008107
In      11.35548967      10.54954231       9.30369334      -0.00060192      -0.00026970      -0.00006050
In      11.18059231       7.66618669       8.20058141      -0.00027880       0.00068865       0.00031216
In      10.62464207      10.44003499       6.38084665       0.00012685      -0.00002383       0.00020437
In       9.63027314       6.76104446      10.65690086      -0.00000978       0.00038915      -0.00010479
In       9.11269383       5.31490640       7.75880780      -0.00009202       0.00024918      -0.00003000
In       8.93787519      12.52806486       9.64741262       0.00028109      -0.00000789      -0.00027214
In      10.45415874       9.47373490      12.10382052       0.00031643      -0.00033377      -0.00038364
In       8.25185124       8.05666122       6.43897760       0.00009611       0.00005264      -0.00029773
In       6.88636574       7.53415177      11.95114900      -0.00026079       0.00020828       0.00048280
In       7.76845523      11.02766460       7.14577537      -0.00027446       0.00001707       0.00036383
In       7.55868765      10.44057735      11.47770234      -0.00012967      -0.00040525      -0.00011015
In       6.63154956       7.16113234       8.85307228       0.00004914       0.00002764       0.00009128