3
Lattice="17.415761 0.0 0.0 0.0 17.415761 0.0 0.0 0.0 17.415761" Properties=species:S:1:pos:R:3:forces:R:3 config_type=qcd dft_energy=-13.70452244 gap_energy=-13.301251538257347 relaxed_gap_energy=-13.331277406993749 energy=-13.331277406993749 free_energy=-13.331277406993749 pbc="T T T"
Ir       6.49341561       8.69790972       8.70866801      -0.00002516      -0.00000614      -0.00002739
Ir       8.70788040       8.70791346       8.70803035       0.00000045       0.00001206       0.00005481
Ir      10.92234549       8.71781832       8.70694314       0.00002471      -0.00000592      -0.00002741
4
Lattice="14.570345 0.0 0.0 0.0 14.570345 0.0 0.0 0.0 14.570345" Properties=species:S:1:pos:R:3:forces:R:3 config_type=qcd dft_energy=-20.62428424 gap_energy=-21.028007986219944 relaxed_gap_energy=-21.31609721629921 energy=-21.31609721629921 free_energy=-21.31609721629921 pbc="T T T"
Ir       7.92322685       8.24288063       6.05470175       0.00002782      -0.00059309       0.00049846
Ir       5.97599090       8.33631055       7.42437359      -0.00045767       0.00003131       0.00026449
Ir       8.59438233       6.23406444       7.14600951       0.00042300      -0.00006559      -0.00031171
Ir       6.64708992       6.32743437       8.51560515       0.00000685       0.00062737      -0.00045124
5
Lattice="16.20990522805784 0.0 0.0 0.0 16.20990522805784 0.0 0.0 0.0 16.20990522805784" Properties=species:S:1:pos:R:3:forces:R:3 config_type=qcd dft_energy=-27.04915613 gap_energy=-26.966803771468427 relaxed_gap_energy=-27.128115904139726 energy=-27.128115904139726 free_energy=-27.128115904139726 pbc="T T T"
Ir       8.52326999       9.59959279       6.67289094      -0.00018437      -0.00033473       0.00013847
Ir       9.02702315       8.43693958       8.63994559      -0.00010465       0.00034667      -0.00051282
Ir       8.43267612       6.63350429      10.07381516      -0.00024788      -0.00027032       0.00006265
Ir       6.68597212       8.16862609       6.20539251       0.00022101       0.00034168      -0.00007405
Ir       7.07146686       6.91402405       8.14241172       0.00031589      -0.00008330       0.00038574
5
Lattice="19.60851094318791 0.0 0.0 0.0 19.60851094318791 0.0 0.0 0.0 19.60851094318791" Properties=species:S:1:pos:R:3:forces:R:3 config_type=qcd dft_energy=-27.02696914 gap_energy=-27.33966296387971 relaxed_gap_energy=-27.557331986908572 energy=-27.557331986908572 free_energy=-27.557331986908572 pbc="T T T"
Ir       7.69840017       5.17649749       6.07162626      -0.00012205       0.00009196       0.00009804
Ir       6.16391200       6.00373951       8.01157612       0.00022821       0.00008875      -0.00033354
Ir       8.23535565       7.71772098       5.83469287       0.00009118       0.00008830      -0.00018209
Ir       5.88670895       7.03441241       5.81050506      -0.00005214      -0.00015694       0.00023020
Ir       8.51259907       6.68703277       8.03569492      -0.00014520      -0.00011208       0.00018739
6
Lattice="14.863474 0.0 0.0 0.0 14.863474 0.0 0.0 0.0 14.863474" Properties=species:S:1:pos:R:3:forces:R:3 config_type=qcd dft_energy=-34.60431823 gap_energy=-34.90113438253613 relaxed_gap_energy=-35.07276109492645 energy=-35.07276109492645 free_energy=-35.07276109492645 pbc="T T T"
Ir       6.00744006       8.30863430       6.60088383      -0.00038502       0.00030924       0.00007670
Ir       8.34463855       8.34046449       6.07943697       0.00027593      -0.00006043      -0.00040439
Ir       6.23515126       5.99866286       7.48083650      -0.00026415      -0.00002314      -0.00009954
Ir       8.57231309       6.03041189       6.95918814       0.00033420      -0.00006162       0.00027047
Ir       6.54683923       7.94031151       8.99578153      -0.00020073      -0.00026837       0.00019893
Ir       8.88403981       7.97193696       8.47429503       0.00023977       0.00010432      -0.00004218
7
Lattice="15.646692 0.0 0.0 0.0 15.646692 0.0 0.0 0.0 15.646692" Properties=species:S:1:pos:R:3:forces:R:3 config_type=qcd dft_energy=-41.22526987 gap_energy=-41.20979827339166 relaxed_gap_energy=-41.26807887258982 energy=-41.26807887258982 free_energy=-41.26807887258982 pbc="T T T"
Ir       5.81395987       7.52743738       7.22082391      -0.00055914      -0.00026912       0.00002571
Ir       7.67838176       8.83857654       6.30180766       0.00046218       0.00053887       0.00042950
Ir       7.30857287       5.76835073       7.83616834       0.00014968      -0.00086087      -0.00029618
Ir       9.21771567       7.02705766       6.93565539       0.00033421      -0.00029357      -0.00036930
Ir       6.89229473       9.05117307       8.81928503       0.00015380       0.00058503       0.00021565
Ir       9.42084033       9.31127690       8.19671410      -0.00011567       0.00019388      -0.00056949
Ir       8.43165677       7.23954971       9.45296756      -0.00042506       0.00010578       0.00056411
8
Lattice="15.36585 0.0 0.0 0.0 15.36585 0.0 0.0 0.0 15.36585" Properties=species:S:1:pos:R:3:forces:R:3 config_type=qcd dft_energy=-50.3154762 gap_energy=-49.591354559983486 relaxed_gap_energy=-50.00456677150153 energy=-50.00456677150153 free_energy=-50.00456677150153 pbc="T T T"
Ir       6.48107732       6.47054589       6.46489308      -0.00034166      -0.00009761      -0.00023409
Ir       6.46590843       6.47114691       8.88638631      -0.00047464      -0.00045418       0.00034753
Ir       8.90256075       6.47315549       6.48008000       0.00039557      -0.00024196      -0.00032714
Ir       8.88738824       6.47377021       8.90156725       0.00039238      -0.00013053       0.00038236
Ir       6.47847083       8.89210102       6.46429447      -0.00038644      -0.00000423      -0.00050208
Ir       6.46326908       8.89266735       8.88577996      -0.00010460       0.00052626       0.00021681
Ir       8.89996128       8.89468445       6.47945831       0.00017746       0.00051187      -0.00033185
Ir       8.88476407       8.89532869       8.90094062       0.00034193      -0.00010964       0.00044846
9
Lattice="18.3514157528589 0.0 0.0 0.0 18.3514157528589 0.0 0.0 0.0 18.3514157528589" Properties=species:S:1:pos:R:3:forces:R:3 config_type=qcd dft_energy=-55.39773125 gap_energy=-55.19794363892943 relaxed_gap_energy=-55.3758820159468 energy=-55.3758820159468 free_energy=-55.3758820159468 pbc="T T T"
Ir      11.95194540       9.22037754       9.75549621       0.00012113       0.00014301       0.00019934
Ir      10.54974340       8.35545765      11.51769439       0.00059149      -0.00003756       0.00029608
Ir      10.04555850      10.26142168       8.71272354      -0.00024243      -0.00005246       0.00018020
Ir      10.09561917       7.60758492       9.13802802      -0.00036311      -0.00053069       0.00011739
Ir       8.61158073       6.80300834       7.56086473      -0.00018788      -0.00023548       0.00011149
Ir       8.61221276       9.37758926      10.51459089       0.00025320       0.00004681      -0.00022172
Ir       7.82467147       8.93369666       7.98288066       0.00036476      -0.00009711      -0.00070321
Ir       8.14603041      11.44325835       7.81821744      -0.00044188       0.00064670       0.00011598
Ir       6.74400904      10.57897648       9.58087500      -0.00009528       0.00011679      -0.00009554
10
Lattice="17.491618 0.0 0.0 0.0 17.491618 0.0 0.0 0.0 17.491618" Properties=species:S:1:pos:R:3:forces:R:3 config_type=qcd dft_energy=-64.29553496 gap_energy=-63.90213922403115 relaxed_gap_energy=-64.03391061179587 energy=-64.03391061179587 free_energy=-64.03391061179587 pbc="T T T"
Ir       7.52995935       6.87546794       7.53562457      -0.00014566      -0.00020300      -0.00003675
Ir       9.96154032       6.87537815       7.53552621      -0.00000401       0.00070219      -0.00016314
Ir       7.50707236       9.28243413       7.54554548       0.00009025      -0.00047847       0.00015641
Ir       9.98450698       9.28239870       7.54545076      -0.00049878      -0.00008843       0.00003667
Ir       8.74569917      11.41364771       7.54525464       0.00056613       0.00004414       0.00008129
Ir       7.53006717       6.87534935       9.95592487      -0.00015013      -0.00017601       0.00005559
Ir       9.96164904       6.87525919       9.95580603      -0.00001584       0.00073656       0.00019334
Ir       7.50718335       9.28232121       9.94624244       0.00007022      -0.00046414      -0.00020872
Ir       9.98460739       9.28228591       9.94612029      -0.00047696      -0.00007916      -0.00011547
Ir       8.74580488      11.41354769       9.94659472       0.00056478       0.00000632       0.00000079
11
Lattice="19.91253240638531 0.0 0.0 0.0 19.91253240638531 0.0 0.0 0.0 19.91253240638531" Properties=species:S:1:pos:R:3:forces:R:3 config_type=qcd dft_energy=-70.04179734 gap_energy=-69.34569950487565 relaxed_gap_energy=-69.62029932685454 energy=-69.62029932685454 free_energy=-69.62029932685454 pbc="T T T"
Ir      12.21081473       8.02122667       9.82202263      -0.00045386       0.00008127      -0.00022295
Ir       9.83339543       8.22028843       9.88648882       0.00002051       0.00011511       0.00007194
Ir       7.92788476       8.20729212       8.37716100       0.00080904      -0.00014179       0.00003625
Ir      11.53478090       9.76206596      11.31850461       0.00007436      -0.00007629       0.00023219
Ir      11.41445676      10.02097235       8.68624061       0.00007197       0.00039046       0.00051098
Ir       7.32448812       8.97112486      10.49941823      -0.00014798       0.00081734       0.00036436
Ir       9.00532108      10.24803336      11.45797801       0.00014043      -0.00022230      -0.00055478
Ir      10.70363145      11.63588601      12.62435626       0.00002173      -0.00052273      -0.00053765
Ir       8.77087798      10.45107503       8.78042350      -0.00009016      -0.00015388      -0.00023010
Ir      10.48556975      11.96440249      10.22614958       0.00003031       0.00010793       0.00011492
Ir      10.30770728      12.01656094       7.84018500      -0.00047635      -0.00039514       0.00021483
12
Lattice="16.807034 0.0 0.0 0.0 16.807034 0.0 0.0 0.0 16.807034" Properties=species:S:1:pos:R:3:forces:R:3 config_type=qcd dft_energy=-80.24054042 gap_energy=-79.78603878986138 relaxed_gap_energy=-79.97882872172539 energy=-79.97882872172539 free_energy=-79.97882872172539 pbc="T T T"
Ir       7.19071748       7.19370513       5.96311464       0.00006741       0.00011333      -0.00005820
Ir       7.19602480       7.19336558       8.40709537      -0.00018415      -0.00020219      -0.00004758
Ir       7.20360125       7.19529483      10.85107023       0.00003182       0.00003440       0.00001324
Ir       9.60609011       7.19636086       5.95673956      -0.00013210       0.00009791       0.00002498
Ir       9.61366810       7.19602055       8.40071731       0.00016957      -0.00019200      -0.00001379
Ir       9.61896901       7.19794584      10.84469831       0.00002682       0.00003488       0.00005390
Ir       7.18805900       9.60908708       5.96233486       0.00009862      -0.00011188      -0.00001678
Ir       7.19336746       9.61101688       8.40631768      -0.00018287       0.00015460      -0.00004496
Ir       7.20094867       9.61067194      10.85029538       0.00002767      -0.00000915      -0.00000155
Ir       9.60343122       9.61174040       5.95596018      -0.00010125      -0.00007959       0.00004041
Ir       9.61100994       9.61367139       8.39993874       0.00017738       0.00017260      -0.00000291
Ir       9.61631698       9.61332351      10.84392175       0.00000108      -0.00001293       0.00005323
13
Lattice="16.986015 0.0 0.0 0.0 16.986015 0.0 0.0 0.0 16.986015" Properties=species:S:1:pos:R:3:forces:R:3 config_type=qcd dft_energy=-86.21550345 gap_energy=-86.19165930666833 relaxed_gap_energy=-86.39038162192043 energy=-86.39038162192043 free_energy=-86.39038162192043 pbc="T T T"
Ir       6.90824696       7.28519849       6.04830318      -0.00012667       0.00081039      -0.00034834
Ir       6.90824800       9.70081724       6.04830346      -0.00013182      -0.00080807      -0.00035086
Ir       7.04945248       7.28497905       8.48597639       0.00003113      -0.00006913       0.00030388
Ir       7.04945289       9.70103593       8.48597658       0.00003238       0.00006844       0.00030333
Ir       7.19320341       7.28340194      10.92721068      -0.00057762       0.00006880       0.00009786
Ir       7.19320291       9.70261280      10.92721091      -0.00057476      -0.00006960       0.00009553
Ir       9.31516117       7.28021066       5.89267888       0.00008218      -0.00035096       0.00046727
Ir       9.31516219       9.70580377       5.89267912       0.00007757       0.00034718       0.00047025
Ir       9.45936468       7.25689272       8.30826917       0.00010816      -0.00023116       0.00011063
Ir       9.45936501       9.72912118       8.30826959       0.00011278       0.00023700       0.00011001
Ir       9.57459402       7.25598152      10.79002066       0.00057104      -0.00036426      -0.00068716
Ir       9.57459361       9.73003411      10.79002142       0.00057065       0.00036105      -0.00068895
Ir      11.40905023       8.49300811       9.50417743      -0.00017503       0.00000034       0.00011654
14
Lattice="17.742696 0.0 0.0 0.0 17.742696 0.0 0.0 0.0 17.742696" Properties=species:S:1:pos:R:3:forces:R:3 config_type=qcd dft_energy=-91.96676533 gap_energy=-91.8639523380272 relaxed_gap_energy=-92.13429357839276 energy=-92.13429357839276 free_energy=-92.13429357839276 pbc="T T T"
Ir       6.76445604       7.66861172       6.07970102      -0.00045081      -0.00019753      -0.00001670
Ir       6.78052818      10.08066642       6.07048134      -0.00032651       0.00020534      -0.00013356
Ir       7.23790033       7.67004755       8.49818929      -0.00001842       0.00047702      -0.00025984
Ir       7.25403311      10.09143728       8.48892188       0.00005002      -0.00049575      -0.00030183
Ir       7.80213591       7.69079310      10.86374982      -0.00026975      -0.00013835       0.00040920
Ir       7.81808544      10.08131192      10.85458398      -0.00032398       0.00016711       0.00041835
Ir       9.10122168       7.64212098       6.74575203       0.00040750      -0.00003172       0.00026079
Ir       9.11748929      10.08109045       6.73641495       0.00041443      -0.00006662       0.00023478
Ir       9.70759999       7.59521777       9.19344870       0.00030578       0.00011536      -0.00050279
Ir       9.72457561      10.13862418       9.18366973       0.00031797      -0.00008715      -0.00044525
Ir      10.00692382       7.64038495      11.85459052       0.00003714      -0.00067328       0.00013430
Ir      10.02342174      10.10992747      11.84505413       0.00001861       0.00063809       0.00024024
Ir      11.63959879       8.85839834      10.31599882       0.00004806      -0.00001087      -0.00011721
Ir      11.22090208       8.85023985       7.46831578      -0.00021005       0.00009835       0.00007952
14
Lattice="19.21486274029185 0.0 0.0 0.0 19.21486274029185 0.0 0.0 0.0 19.21486274029185" Properties=species:S:1:pos:R:3:forces:R:3 config_type=qcd dft_energy=-91.92985914 gap_energy=-91.82120999479643 relaxed_gap_energy=-92.70085913911707 energy=-92.70085913911707 free_energy=-92.70085913911707 pbc="T T T"
Ir      11.76676323       7.36599224       8.01306615      -0.00012938       0.00049155       0.00012730
Ir       9.52628447       7.89136767       7.37014693      -0.00013065       0.00021349       0.00002691
Ir       8.17871488       9.67845800       6.64525832       0.00000918      -0.00014470      -0.00049197
Ir      11.12010005       7.33343905      10.31303931       0.00007948       0.00028512      -0.00004642
Ir      10.68646316      12.67434795       9.60439787       0.00001704      -0.00026708      -0.00011189
Ir       9.41754430      11.26052145       8.06082167       0.00021927      -0.00074127      -0.00008853
Ir       8.91790238       8.24045630       9.72174744       0.00006642      -0.00006745       0.00031537
Ir      10.91461925       9.58506854       8.89516631      -0.00013906       0.00002911       0.00013554
Ir       7.38205393       9.92699608       8.93555512       0.00024436       0.00031793       0.00025912
Ir       8.63719408      11.60827002      10.51209914      -0.00008604      -0.00022993       0.00032346
Ir      11.01704627      10.70064781      11.01396874       0.00019371       0.00011064       0.00013924
Ir       8.96120344       9.37441516      11.85099961       0.00018121      -0.00001532      -0.00019158
Ir      11.23417930       8.60904064      12.28660525       0.00020500      -0.00026513      -0.00028236
Ir       6.74397042      10.25501829      11.28116733      -0.00073053       0.00028304      -0.00011420
15
Lattice="19.16255100427284 0.0 0.0 0.0 19.16255100427284 0.0 0.0 0.0 19.16255100427284" Properties=species:S:1:pos:R:3:forces:R:3 config_type=qcd dft_energy=-99.85412354 gap_energy=-99.60372866104983 relaxed_gap_energy=-99.93691862351584 energy=-99.93691862351584 free_energy=-99.93691862351584 pbc="T T T"
Ir      12.53074887      10.90577026       8.25068623       0.00003683       0.00016010      -0.00017257
Ir      11.93627982      10.99199922      10.55159610      -0.00006973       0.00014025      -0.00005037
Ir      10.11653702      10.78518070       7.62968201       0.00008549      -0.00007371      -0.00006326
Ir      11.46967553       8.73681882       8.02610335      -0.00025101      -0.00025933      -0.00027490
Ir       7.76929874      11.18341899       7.09328210      -0.00001106      -0.00012169      -0.00000176
Ir      11.36064739       9.75009741      12.55542602       0.00001536      -0.00010699      -0.00006941
Ir       9.55549149      10.98172949       9.96572115       0.00001851      -0.00011306      -0.00003041
Ir       9.59486055       7.27126569       7.70693776      -0.00001125       0.00027285       0.00034912
Ir      10.99906104       8.61770185      10.37503444      -0.00051521      -0.00014969       0.00056849
Ir       9.02347994       9.60133775      11.86886736      -0.00007926      -0.00011099       0.00000561
Ir       8.18990681       9.10991540       8.39360478       0.00052706       0.00016259      -0.00056334
Ir       7.17034672      11.20808476       9.44480420       0.00006791       0.00011190       0.00010190
Ir       9.66438511       6.63926242      10.01385265      -0.00003013       0.00042198      -0.00015613
Ir       6.60082907       9.93927263      11.37373546      -0.00007605       0.00005102       0.00024732
Ir       7.73758442       7.99727714      10.46979891       0.00029255      -0.00038523       0.00010970
16
Lattice="20.51521216898483 0.0 0.0 0.0 20.51521216898483 0.0 0.0 0.0 20.51521216898483" Properties=species:S:1:pos:R:3:forces:R:3 config_type=qcd dft_energy=-106.7627925 gap_energy=-106.5445975402552 relaxed_gap_energy=-106.98058116325949 energy=-106.98058116325949 free_energy=-106.98058116325949 pbc="T T T"
Ir       8.29475859      11.10856050      13.00401217      -0.00011237       0.00030184      -0.00005379
Ir       9.81131412      11.66517994       9.94411060       0.00017623       0.00046620       0.00007284
Ir       7.46856380       9.37026407       8.49684513       0.00029973       0.00017278       0.00016013
Ir      12.39796550       7.46154159      10.99075016      -0.00027205       0.00003886       0.00033471
Ir       7.79248763      10.38485006      10.79994632       0.00007163      -0.00015139       0.00030888
Ir      12.15553061      11.50229691       9.56017667       0.00004345       0.00014234       0.00007441
Ir       9.67144522       8.94000259       9.55533382      -0.00023741       0.00000848      -0.00040151
Ir      12.49366863       9.85739089      11.50298189      -0.00025448      -0.00009889      -0.00026135
Ir       7.64269192      11.83475168       8.67170569       0.00039589      -0.00044824      -0.00001109
Ir      10.17365257       9.74721687      12.12150850       0.00012378       0.00025060      -0.00001542
Ir      10.22880251      12.32563069      12.24852303      -0.00020000      -0.00015827       0.00000720
Ir      10.07543858       7.42342215      11.44046200       0.00052886       0.00062208      -0.00031546
Ir       9.51249008      10.59445590       7.54060177      -0.00048926      -0.00080128       0.00021871
Ir      12.55101477      12.29695951      11.84962777      -0.00007368      -0.00064182       0.00044628
Ir      11.82359002      10.61512761       7.28396591       0.00024205       0.00029003      -0.00022228
Ir      12.02828281       8.99404641       9.11114590      -0.00024237       0.00000667      -0.00034226
17
Lattice="21.83388103278637 0.0 0.0 0.0 21.83388103278637 0.0 0.0 0.0 21.83388103278637" Properties=species:S:1:pos:R:3:forces:R:3 config_type=qcd dft_energy=-114.26558536 gap_energy=-114.31834917189488 relaxed_gap_energy=-115.69838230518272 energy=-115.69838230518272 free_energy=-115.69838230518272 pbc="T T T"
Ir      10.67180317       7.36141280       9.97094582      -0.00029691      -0.00014762       0.00012666
Ir      11.26471786      11.32850541      13.68705433       0.00008392      -0.00056365       0.00041392
Ir      11.61589195      10.34634662      11.45203641      -0.00004360      -0.00002423       0.00019478
Ir      12.37943669       9.03030260       9.54265046      -0.00011360       0.00017353       0.00038462
Ir       9.92614819       8.63287530      11.94566685       0.00012610       0.00015923      -0.00031978
Ir      14.08738014      10.68071768       9.04896313       0.00004632       0.00015424      -0.00011528
Ir       9.57964536       9.65320300      14.11487917       0.00011411       0.00018014       0.00013578
Ir      13.38441891      11.99367381      11.01211048      -0.00018492      -0.00008884       0.00020324
Ir       8.94669608       9.03716730       9.68378477      -0.00016919       0.00019879       0.00020674
Ir      12.38115320      12.37479851       8.75662871       0.00016192       0.00006973       0.00008365
Ir      10.66281425      10.69351203       9.17119987      -0.00019302       0.00005794      -0.00084495
Ir      12.97888967      12.95658519      13.19731627       0.00011117       0.00035325      -0.00020018
Ir       9.06633693      11.15048344      12.26307000       0.00011563       0.00001762      -0.00045549
Ir      11.03634400      13.06490423      11.73119873       0.00003983      -0.00006609       0.00039320
Ir       9.22034806      12.41968689      10.04183725       0.00021158       0.00013292      -0.00003976
Ir       7.48858381      10.77558807      10.44441585      -0.00004275      -0.00056780       0.00002873
Ir      10.89738050      14.08822592       9.52423068       0.00003341      -0.00003916      -0.00019587
18
Lattice="21.31115583307117 0.0 0.0 0.0 21.31115583307117 0.0 0.0 0.0 21.31115583307117" Properties=species:S:1:pos:R:3:forces:R:3 config_type=qcd dft_energy=-120.17803698 gap_energy=-120.01982644812668 relaxed_gap_energy=-120.80585335004506 energy=-120.80585335004506 free_energy=-120.80585335004506 pbc="T T T"
Ir      13.47315443      12.30433168       8.77236062      -0.00024808       0.00009412      -0.00026968
Ir      11.12239067      12.74417951       8.53421486       0.00066004       0.00006716       0.00057785
Ir      12.40066264      12.30003781      10.95253212       0.00016930       0.00040585      -0.00054110
Ir      10.67212828      10.36889001       8.50280227      -0.00035270       0.00011884       0.00020642
Ir      11.31349351      13.92411007      12.34512113      -0.00010522       0.00016849       0.00062687
Ir      12.89909803      10.12926549       9.53180000       0.00065337      -0.00006576      -0.00013420
Ir       8.64547647      11.80618601       8.87349294      -0.00068184      -0.00021522      -0.00023359
Ir       9.77993870       8.13518943       8.17269196       0.00005725       0.00014379       0.00011733
Ir       9.80985596      13.18163921      10.63555432       0.00068447       0.00007473      -0.00010483
Ir      10.49933292      11.72941403      12.81178266      -0.00023019       0.00049116      -0.00005274
Ir       8.51581488       9.26695732       9.82192462      -0.00055537      -0.00028576      -0.00027008
Ir       8.26899924      11.40761045      11.42125700       0.00015777      -0.00006503      -0.00013085
Ir      11.02404111       8.27806924      10.23023697       0.00020505      -0.00094278       0.00023493
Ir      13.36437914       8.12379055      10.79835362       0.00002986       0.00002121      -0.00013953
Ir      12.22247892       9.79446729      12.09527354       0.00024441       0.00037140       0.00014997
Ir       9.58090264       9.20678651      12.31962840      -0.00026284       0.00016495       0.00043711
Ir      10.99486720       9.81903647      14.13779253       0.00028206      -0.00038441      -0.00027891
Ir       7.21338778       9.28044141      11.84358295      -0.00070734      -0.00016276      -0.00019498
19
Lattice="22.19044632070794 0.0 0.0 0.0 22.19044632070794 0.0 0.0 0.0 22.19044632070794" Properties=species:S:1:pos:R:3:forces:R:3 config_type=qcd dft_energy=-128.84695629 gap_energy=-128.9388193092739 relaxed_gap_energy=-130.98393121175687 energy=-130.98393121175687 free_energy=-130.98393121175687 pbc="T T T"
Ir      13.75218842       8.62630444      11.18122745      -0.00022524       0.00017037       0.00015162
Ir      14.16261744      13.02273305      11.67884635      -0.00032953       0.00013919      -0.00011186
Ir      12.81703096      12.81151496       9.66850961       0.00000978      -0.00000374      -0.00034499
Ir      12.41405513      10.50085897      10.10547821       0.00010181       0.00007531       0.00024979
Ir      11.49649787      12.59580114       7.65052738      -0.00060972      -0.00014588       0.00001923
Ir      13.52473475      10.80590927      12.40366516      -0.00009688      -0.00002555      -0.00000796
Ir      10.76174389      10.35612006       8.32733013      -0.00028017      -0.00031326       0.00011886
Ir      11.19543355       8.58131678      11.18167934       0.00000778      -0.00002295      -0.00020007
Ir      12.45753260       8.65777174      13.31048658      -0.00010403       0.00041221      -0.00006482
Ir       9.88254749       8.26441850       9.21894343       0.00028442       0.00046345       0.00004455
Ir       9.46266267      12.40221116       9.03548934       0.00055074       0.00012106      -0.00034274
Ir      10.82971854      12.47560664      11.03170876       0.00045321       0.00014320       0.00004575
Ir      12.14163053      12.84760592      13.03691722       0.00037403      -0.00053947       0.00046363
Ir      11.26846065      10.66342085      13.90141329      -0.00023837      -0.00020026       0.00031111
Ir       9.78552062      10.39215639      11.97526645       0.00007168      -0.00018502       0.00004591
Ir       8.55801316      10.18916627       9.87679840       0.00002253       0.00013124      -0.00017628
Ir       7.42276859      12.30149904      10.41009205       0.00020161      -0.00024477       0.00029848
Ir      10.10470293      12.77470694      14.41025690       0.00016961      -0.00015511      -0.00043786
Ir       8.77138028      12.54011792      12.40460399      -0.00036325       0.00017998      -0.00006234
20
Lattice="21.44978064621001 0.0 0.0 0.0 21.44978064621001 0.0 0.0 0.0 21.44978064621001" Properties=species:S:1:pos:R:3:forces:R:3 config_type=qcd dft_energy=-135.39439356 gap_energy=-135.17238953695622 relaxed_gap_energy=-137.03881426409188 energy=-137.03881426409188 free_energy=-137.03881426409188 pbc="T T T"
Ir      12.56056836       8.63004213      13.37407984       0.00013014      -0.00046289       0.00008351
Ir      12.61091756      11.07766287      13.22768343      -0.00013906      -0.00014444      -0.00022133
Ir      12.38090987      13.47102502      12.89265529       0.00014460       0.00032003       0.00044806
Ir      12.71137115      13.19052046      10.49341047       0.00015829       0.00010717       0.00001044
Ir      10.16384873       8.75720180      13.04594894       0.00060520       0.00066199      -0.00005023
Ir      13.21096861       8.99572395       9.06369190       0.00002898      -0.00029713       0.00019554
Ir      12.99065531      10.80260540      10.91856373      -0.00005961       0.00029450      -0.00007430
Ir      11.82787210       8.56459059      11.05657332       0.00011930      -0.00002291      -0.00023154
Ir      10.24411692      11.14556111      12.98156390      -0.00012269       0.00034054       0.00001677
Ir      10.41213337      13.01808008      11.44588846      -0.00027114      -0.00011055       0.00001274
Ir      12.11741022      11.23689901       8.61898382       0.00004895      -0.00031505       0.00011317
Ir      11.67369400      13.56966075       8.33804379      -0.00017201       0.00000876       0.00001077
Ir      10.72909808       9.17839608       8.80106304      -0.00014366      -0.00006234      -0.00012888
Ir       7.85142927       9.46413168      12.75965064      -0.00003375      -0.00007757      -0.00027806
Ir       9.29138920       8.73254574      10.72033168      -0.00015905       0.00003786      -0.00010284
Ir       9.70331356      12.45765105       9.20741684       0.00036515      -0.00005551       0.00025813
Ir      10.12593492      11.06781454       7.09459432      -0.00014603       0.00019449       0.00029638
Ir       8.47475318      10.28215777       8.79097496      -0.00023774      -0.00045271       0.00007665
Ir       8.55407005      11.30660265      11.18979282       0.00006413      -0.00014135      -0.00032228
Ir       6.86335200       9.54893377      10.47689526      -0.00018003       0.00017711      -0.00011270
21