3
Lattice="23.551257889782 0.0 0.0 0.0 23.551257889782 0.0 0.0 0.0 23.551257889782" Properties=species:S:1:pos:R:3:forces:R:3 config_type=qcd dft_energy=-1.34511979 gap_energy=-1.174358578836658 relaxed_gap_energy=-1.2113943750173912 energy=-1.2113943750173912 free_energy=-1.2113943750173912 pbc="T T T"
K       12.48356511      12.54568787       9.56790251       0.00021588       0.00023503      -0.00051941
K       10.13007542       9.97909010      11.97262381      -0.00010994      -0.00011962       0.00032153
K       12.71324632      12.80210887      13.78636052      -0.00010594      -0.00011541       0.00019787
3
Lattice="23.42804776526288 0.0 0.0 0.0 23.42804776526288 0.0 0.0 0.0 23.42804776526288" Properties=species:S:1:pos:R:3:forces:R:3 config_type=qcd dft_energy=-1.32434153 gap_energy=-1.0572619027887258 relaxed_gap_energy=-1.1895442726696188 energy=-1.1895442726696188 free_energy=-1.1895442726696188 pbc="T T T"
K       12.99595583      13.49526124      13.55243200       0.00001136       0.00023448       0.00046369
K        9.27848999      10.39942259      12.45506364       0.00033984       0.00008156      -0.00031181
K       12.86762583      11.24738783       9.13457599      -0.00035120      -0.00031604      -0.00015189
3
Lattice="26.74771950431569 0.0 0.0 0.0 26.74771950431569 0.0 0.0 0.0 26.74771950431569" Properties=species:S:1:pos:R:3:forces:R:3 config_type=qcd dft_energy=-1.31832387 gap_energy=-1.0291754773188873 relaxed_gap_energy=-1.0310161855442657 energy=-1.0310161855442657 free_energy=-1.0310161855442657 pbc="T T T"
K       12.17456926      16.71358313      14.04753389       0.00027651      -0.00048334      -0.00009738
K       13.15649289       9.84056690      12.65942846      -0.00004989       0.00012760       0.00002573
K       14.79051711      13.56742923      13.41461691      -0.00022662       0.00035575       0.00007165
3
Lattice="26.07494106649653 0.0 0.0 0.0 26.07494106649653 0.0 0.0 0.0 26.07494106649653" Properties=species:S:1:pos:R:3:forces:R:3 config_type=qcd dft_energy=-1.31732433 gap_energy=-1.0209319008773443 relaxed_gap_energy=-1.0209849377128701 energy=-1.0209849377128701 free_energy=-1.0209849377128701 pbc="T T T"
K       14.88698320      13.42821929       9.42446439       0.00000960      -0.00024970       0.00061041
K       10.76291983      12.98094323      16.42099810       0.00041819      -0.00017735      -0.00015284
K       13.46250857      12.70324908      13.26694912      -0.00042779       0.00042705      -0.00045757
4
Lattice="26.85449202235683 0.0 0.0 0.0 26.85449202235683 0.0 0.0 0.0 26.85449202235683" Properties=species:S:1:pos:R:3:forces:R:3 config_type=qcd dft_energy=-2.11129079 gap_energy=-1.7836770145480885 relaxed_gap_energy=-1.8037135650552891 energy=-1.8037135650552891 free_energy=-1.8037135650552891 pbc="T T T"
K       12.80921784      15.39629727      14.28210994       0.00028668       0.00000762       0.00002774
K       14.04522526      11.45562455      12.57774390      -0.00041636       0.00000458      -0.00000885
K       16.89342888      14.27464835      13.97665431       0.00000492       0.00017942       0.00007060
K        9.96111205      12.58241387      12.87247590       0.00012476      -0.00019161      -0.00008949
4
Lattice="26.31048970351796 0.0 0.0 0.0 26.31048970351796 0.0 0.0 0.0 26.31048970351796" Properties=species:S:1:pos:R:3:forces:R:3 config_type=qcd dft_energy=-2.09382208 gap_energy=-1.714690026895355 relaxed_gap_energy=-1.9743544849459833 energy=-1.9743544849459833 free_energy=-1.9743544849459833 pbc="T T T"
K       12.97110946      14.47382803      15.90026013      -0.00010236       0.00005824       0.00058450
K       15.87247015      13.77211481      11.91183774       0.00026428      -0.00001737      -0.00032697
K       12.83480676      10.13510412      13.45297598       0.00001621      -0.00013035       0.00007504
K       10.94259304      14.23993245      11.35590556      -0.00017813       0.00008948      -0.00033257
5
Lattice="23.99580387010183 0.0 0.0 0.0 23.99580387010183 0.0 0.0 0.0 23.99580387010183" Properties=species:S:1:pos:R:3:forces:R:3 config_type=qcd dft_energy=-2.85034655 gap_energy=-2.3790919903739995 relaxed_gap_energy=-2.38445073072881 energy=-2.38445073072881 free_energy=-2.38445073072881 pbc="T T T"
K       13.56788330      12.24896549      11.48140330      -0.00037305       0.00034659      -0.00039864
K       10.57852196      10.13290329      14.01908362      -0.00077864       0.00008129      -0.00002869
K       14.70088137       9.13830636      14.28144480       0.00075411      -0.00023956       0.00021225
K       11.92754445      15.26782939       8.83216496      -0.00026283      -0.00043050       0.00050572
K        9.21467859      13.20150515      11.37541300       0.00066040       0.00024218      -0.00029064
5
Lattice="30.0 0.0 0.0 0.0 30.0 0.0 0.0 0.0 30.0" Properties=species:S:1:pos:R:3:forces:R:3 config_type=qcd dft_energy=-2.814047 gap_energy=-2.3910055416967606 relaxed_gap_energy=-2.700490186544963 energy=-2.700490186544963 free_energy=-2.700490186544963 pbc="T T T"
K       10.19802207      13.99447844       9.84445753      -0.00004043      -0.00001627      -0.00012038
K       10.40825185      10.03048034      11.72231939      -0.00011499      -0.00009240      -0.00000388
K       14.21027336      12.33791996      10.50372730      -0.00014865       0.00008034       0.00048869
K       13.95396506      10.15812359      14.30873943      -0.00002926       0.00018150      -0.00021559
K       11.60796659      13.85747659      13.99923528       0.00033333      -0.00015317      -0.00014884
5
Lattice="27.31603280908462 0.0 0.0 0.0 27.31603280908462 0.0 0.0 0.0 27.31603280908462" Properties=species:S:1:pos:R:3:forces:R:3 config_type=qcd dft_energy=-2.80110572 gap_energy=-2.4100574189113972 relaxed_gap_energy=-2.700489437509754 energy=-2.700489437509754 free_energy=-2.700489437509754 pbc="T T T"
K       11.09303230      15.97070425      13.15967905      -0.00006995       0.00008039       0.00022485
K       16.22374615      11.34514560      14.15334247      -0.00014344      -0.00006195       0.00025109
K       13.41499814      12.84653074      11.13347472      -0.00004610      -0.00012889       0.00002977
K       12.22849855      12.48647752      15.57870693       0.00053434       0.00026264      -0.00055617
K       15.32980689      15.64122390      14.26487885      -0.00027485      -0.00015218       0.00005046
6
Lattice="26.52080086823306 0.0 0.0 0.0 26.52080086823306 0.0 0.0 0.0 26.52080086823306" Properties=species:S:1:pos:R:3:forces:R:3 config_type=qcd dft_energy=-3.72578311 gap_energy=-3.1285017925770893 relaxed_gap_energy=-3.43066705158979 energy=-3.43066705158979 free_energy=-3.43066705158979 pbc="T T T"
K       11.14029912      14.26944750      10.08009886      -0.00019098      -0.00017477       0.00013175
K       15.14772164      13.94553192      11.79412555       0.00007210       0.00018273       0.00011551
K       11.44768612      11.57736403      13.51377694       0.00046450      -0.00044004       0.00011570
K       15.55209300      10.08393413      13.81341046      -0.00065633       0.00033571      -0.00064568
K       11.78051176      16.12213562      14.04367379       0.00032998       0.00011169      -0.00068469
K       14.49409095      13.56398942      16.31731700      -0.00001926      -0.00001533       0.00096741
7
Lattice="27.41254245954072 0.0 0.0 0.0 27.41254245954072 0.0 0.0 0.0 27.41254245954072" Properties=species:S:1:pos:R:3:forces:R:3 config_type=qcd dft_energy=-4.7054187 gap_energy=-4.285141686358385 relaxed_gap_energy=-4.290897940336116 energy=-4.290897940336116 free_energy=-4.290897940336116 pbc="T T T"
K       17.49803381      13.70627123      13.70627123       0.00001021       0.00000000      -0.00000000
K       14.87481623      17.31663768      13.70627123       0.00028482      -0.00048801      -0.00000000
K       14.87481623      10.09590478      13.70627123       0.00028482       0.00048801      -0.00000000
K       10.63945091      15.93206202      13.70627123      -0.00049990       0.00081502      -0.00000000
K       10.63945091      11.48048044      13.70627123      -0.00049990      -0.00081502      -0.00000000
K       13.70866526      13.70627123      16.12983587       0.00020998       0.00000000      -0.00021369
K       13.70866526      13.70627123      11.28270659       0.00020998       0.00000000       0.00021369
8
Lattice="26.32855948280166 0.0 0.0 0.0 26.32855948280166 0.0 0.0 0.0 26.32855948280166" Properties=species:S:1:pos:R:3:forces:R:3 config_type=qcd dft_energy=-5.58439971 gap_energy=-5.044902127163383 relaxed_gap_energy=-5.063545643543691 energy=-5.063545643543691 free_energy=-5.063545643543691 pbc="T T T"
K       10.96711828      13.53095885      16.86933175      -0.00008958      -0.00044720      -0.00039991
K       14.67899936      15.09866520      10.91633687      -0.00042819      -0.00023359       0.00004897
K       12.66709273      17.21984207      14.56076914      -0.00045387       0.00048295       0.00000991
K       12.36730364      10.05696062      14.05796238      -0.00063839       0.00002531       0.00044318
K       12.58162263      11.16776316       9.53484824      -0.00031114       0.00021386      -0.00022124
K       10.68120914      13.87550182      12.48214244       0.00075350       0.00007423       0.00004608
K       14.99346792      13.51376497      15.07602427       0.00078885      -0.00010844      -0.00014123
K       16.37742424      10.85078123      11.81682283       0.00037881      -0.00000712       0.00021423
8
Lattice="30.0 0.0 0.0 0.0 30.0 0.0 0.0 0.0 30.0" Properties=species:S:1:pos:R:3:forces:R:3 config_type=qcd dft_energy=-5.5598106 gap_energy=-5.0539121360767325 relaxed_gap_energy=-5.063543600656907 energy=-5.063543600656907 free_energy=-5.063543600656907 pbc="T T T"
K        6.83823391       9.32260063      12.71843714      -0.00020379      -0.00052464       0.00036633
K       10.51717196      10.94609027       6.76929940       0.00015838      -0.00049412       0.00039366
K        8.56786938      13.02547431      10.47516738       0.00040925       0.00024759      -0.00027815
K        8.15109952       5.88469463       9.83394104      -0.00020370      -0.00007110       0.00036333
K        8.34566925       7.07840634       5.33014141      -0.00012404      -0.00002871      -0.00012747
K        6.51541924       9.75735629       8.34361405       0.00010970       0.00025054       0.00010560
K       10.85148825       9.27544313      10.89429267      -0.00080656       0.00047523      -0.00030457
K       12.15482009       6.65170680       7.57687891       0.00066076       0.00014520      -0.00051873
8
Lattice="26.32372317819662 0.0 0.0 0.0 26.32372317819662 0.0 0.0 0.0 26.32372317819662" Properties=species:S:1:pos:R:3:forces:R:3 config_type=qcd dft_energy=-5.54923428 gap_energy=-5.003811954777192 relaxed_gap_energy=-5.05775267746346 energy=-5.05775267746346 free_energy=-5.05775267746346 pbc="T T T"
K       16.19028339      14.57780132      10.79138476      -0.00009783       0.00005829       0.00012450
K       11.64688919      14.59323770      10.87018482      -0.00004288       0.00046414       0.00005030
K       14.07798910      10.79648168      11.37636026      -0.00002449      -0.00026032      -0.00012299
K        9.69571526      11.06571695      12.55848066      -0.00017508      -0.00011167      -0.00032192
K       14.15541820      17.09664280      13.71312428      -0.00043242      -0.00008322      -0.00003949
K       12.61080520       9.90421549      15.58282251      -0.00002864       0.00044541       0.00043990
K       15.63515412      13.00916403      15.02025764      -0.00005750      -0.00015982       0.00016192
K       11.28263826      14.25163275      15.38227777       0.00085883      -0.00035281      -0.00029222
9
Lattice="29.56677120653644 0.0 0.0 0.0 29.56677120653644 0.0 0.0 0.0 29.56677120653644" Properties=species:S:1:pos:R:3:forces:R:3 config_type=qcd dft_energy=-6.16843622 gap_energy=-5.751336682426221 relaxed_gap_energy=-5.769759091770204 energy=-5.769759091770204 free_energy=-5.769759091770204 pbc="T T T"
K       15.87161230      14.41702945      19.51614655      -0.00063064       0.00031322       0.00011091
K       17.26997740      15.99312161      15.61995570       0.00022254      -0.00058702      -0.00024461
K       12.12924736      12.71224234      17.83623166       0.00022005      -0.00051081       0.00020297
K       13.15214461      17.14113031      16.87459529       0.00013615       0.00022931      -0.00033608
K       16.16039606      11.67191991      15.75889074       0.00034874       0.00020415       0.00022372
K       14.79913272      18.00729952      12.58451793       0.00008850       0.00010883       0.00018142
K       17.07941163      13.89102793      11.75948879      -0.00011069      -0.00009879       0.00005546
K       12.99724874      14.02899200      13.66999782       0.00002074      -0.00002889      -0.00000868
K       13.59129961      15.18770737       9.43064595      -0.00029539       0.00037000      -0.00018512
9
Lattice="30.0 0.0 0.0 0.0 30.0 0.0 0.0 0.0 30.0" Properties=species:S:1:pos:R:3:forces:R:3 config_type=qcd dft_energy=-6.1644411 gap_energy=-5.73669414646427 relaxed_gap_energy=-5.845038570113443 energy=-5.845038570113443 free_energy=-5.845038570113443 pbc="T T T"
K        8.47959260      13.70324589      11.73782184      -0.00010589       0.00017593       0.00015002
K       15.85657559      12.57348586      11.13467625       0.00034385      -0.00061717      -0.00000510
K       11.72642313      11.23145520       9.76009903       0.00025023      -0.00064959      -0.00054809
K       12.48428180      15.43948832      10.94117483      -0.00056782       0.00020260       0.00069948
K       14.21480392       8.57593509      12.40067451      -0.00003943       0.00042035      -0.00060854
K       10.54939351      10.53566021      14.05497613      -0.00013810       0.00027158       0.00029054
K       14.61150182      11.86116119      15.40391355       0.00011176       0.00035424       0.00056190
K       15.53910900      15.99843379      14.10524347       0.00008643      -0.00003522       0.00004315
K       11.26307321      14.80588902      15.18617497       0.00005898      -0.00012272      -0.00058337
9
Lattice="26.11924363876212 0.0 0.0 0.0 26.11924363876212 0.0 0.0 0.0 26.11924363876212" Properties=species:S:1:pos:R:3:forces:R:3 config_type=qcd dft_energy=-6.16393723 gap_energy=-5.806646574979467 relaxed_gap_energy=-5.8293006334548085 energy=-5.8293006334548085 free_energy=-5.8293006334548085 pbc="T T T"
K       16.09636966      11.89914633       9.84348997      -0.00008115       0.00034672      -0.00047706
K       11.65902886      12.56023907      10.16773563       0.00019460       0.00005299      -0.00066829
K       14.45494008      16.05695781       9.89516106       0.00051922       0.00045266      -0.00023811
K       11.05458083      16.21359230      12.84973649      -0.00058881       0.00025124      -0.00023657
K       10.24931953      11.94245639      14.25061222      -0.00023927      -0.00067703       0.00065764
K       14.69808663      13.69986668      13.72422538       0.00034956      -0.00036340       0.00015549
K       13.72662700       9.39430383      12.72546766      -0.00020006      -0.00017039       0.00044286
K       11.97518354      14.96445432      17.08332718       0.00044473      -0.00018586       0.00007526
K       13.62246024      10.80557965      16.99684079      -0.00039881       0.00029307       0.00028878
9
Lattice="26.69477374970377 0.0 0.0 0.0 26.69477374970377 0.0 0.0 0.0 26.69477374970377" Properties=species:S:1:pos:R:3:forces:R:3 config_type=qcd dft_energy=-6.16283697 gap_energy=-5.803268536990654 relaxed_gap_energy=-5.84641720021186 energy=-5.84641720021186 free_energy=-5.84641720021186 pbc="T T T"
K       11.43050656      16.21621988      13.45462478      -0.00004649       0.00026542       0.00027157
K       10.26914785      11.89537960      13.94132363       0.00038262       0.00049971       0.00031700
K       10.64540718      13.68034439       9.85420747       0.00030901      -0.00039186      -0.00010896
K       13.68018988      10.67055848      11.19049558       0.00008709       0.00038035       0.00022052
K       13.70609926       9.49975194      15.51196595       0.00009075       0.00006423      -0.00014657
K       15.68942574      16.86592856      14.67312315      -0.00017604      -0.00011627       0.00054341
K       13.22870931      13.76853088      16.77279863      -0.00070238       0.00000726       0.00003784
K       14.84110187      14.99116346      10.70283718      -0.00005709      -0.00065436      -0.00021402
K       16.63589423      12.53860470      14.02510551       0.00011254      -0.00005450      -0.00092079
9
Lattice="26.47940600995777 0.0 0.0 0.0 26.47940600995777 0.0 0.0 0.0 26.47940600995777" Properties=species:S:1:pos:R:3:forces:R:3 config_type=qcd dft_energy=-6.14426149 gap_energy=-5.723388522411977 relaxed_gap_energy=-5.829302077417914 energy=-5.829302077417914 free_energy=-5.829302077417914 pbc="T T T"
K       12.82187017      14.40221877      10.22903322       0.00032422      -0.00000587       0.00049473
K       15.54169047      10.82205534      10.10555562      -0.00047809       0.00047461      -0.00038555
K       11.36558240      10.35800638      11.75925735       0.00015760       0.00021569      -0.00015924
K       17.13594790      14.79108326      11.40700499       0.00013946      -0.00048997       0.00011093
K       10.21251898      14.32111175      13.73201977      -0.00047565      -0.00036423      -0.00041314
K       14.01107429      16.83647095      13.92099095       0.00012820       0.00005288      -0.00057221
K       14.58248171      12.36288150      14.21844118       0.00036799       0.00020913       0.00015528
K       10.93015102      10.66003915      16.23007034      -0.00001142      -0.00029020       0.00035237
K       12.55601012      14.60345996      17.55495362      -0.00015230       0.00019797       0.00041684
9
Lattice="26.70724695414588 0.0 0.0 0.0 26.70724695414588 0.0 0.0 0.0 26.70724695414588" Properties=species:S:1:pos:R:3:forces:R:3 config_type=qcd dft_energy=-6.13462167 gap_energy=-5.822558740505395 relaxed_gap_energy=-5.846417720898385 energy=-5.846417720898385 free_energy=-5.846417720898385 pbc="T T T"
K       10.43290196      15.02933140      12.58891088      -0.00051253      -0.00016803      -0.00020382
K       13.14818263      12.53756617      10.00215783      -0.00017391      -0.00002532       0.00033295
K       10.67522936      13.72671351      16.86600154       0.00030956      -0.00020172      -0.00047996
K       14.70402806      11.89801925      16.17755254       0.00000676      -0.00040657      -0.00050223
K       11.15333919      10.70516512      13.59526891       0.00042645      -0.00013066       0.00013089
K       13.98342727      16.22220321      15.17031581       0.00025320       0.00015117       0.00040800
K       16.70014654      13.73256427      12.58537717       0.00008237      -0.00044990       0.00030636
K       14.07745571      16.85084728      10.74202322       0.00004616       0.00072741      -0.00057731
K       15.30790057       9.48020108      12.45500340      -0.00043806       0.00050361       0.00058513
9
Lattice="26.81717397418055 0.0 0.0 0.0 26.81717397418055 0.0 0.0 0.0 26.81717397418055" Properties=species:S:1:pos:R:3:forces:R:3 config_type=qcd dft_energy=-6.13447025 gap_energy=-5.805376755981026 relaxed_gap_energy=-5.829296912601903 energy=-5.829296912601903 free_energy=-5.829296912601903 pbc="T T T"
K       16.78055294      10.48963973      12.37065640      -0.00023771       0.00007776       0.00004946
K       14.92434684      14.50463156      13.20058442      -0.00022458      -0.00029087       0.00045917
K       16.31835521      11.88064329      16.59340885       0.00079707       0.00025938      -0.00036421
K       13.14536673      11.81219737      10.03905391       0.00025671      -0.00053801      -0.00075163
K       12.43062156      14.11112274      16.94983972      -0.00019138       0.00008986      -0.00002394
K       12.74605424      10.36298407      14.34179728      -0.00057971       0.00035768       0.00049969
K       12.28522222      16.22548797       9.97819410      -0.00000626       0.00032656       0.00085336
K       11.85691995      17.64380065      14.19826142      -0.00000114      -0.00027689      -0.00021878
K       10.18984320      13.64677549      13.00548677       0.00018701      -0.00000547      -0.00050312
9
Lattice="30.0 0.0 0.0 0.0 30.0 0.0 0.0 0.0 30.0" Properties=species:S:1:pos:R:3:forces:R:3 config_type=qcd dft_energy=-6.13224448 gap_energy=-5.803441493085716 relaxed_gap_energy=-5.845039050832659 energy=-5.845039050832659 free_energy=-5.845039050832659 pbc="T T T"
K        7.43964368      12.10979481       9.32046787      -0.00072838      -0.00011940       0.00045588
K        6.18520671       7.88894063      10.06860181       0.00032069       0.00018227       0.00006500
K        6.48945819       9.55466883       5.82501692       0.00004107       0.00033565      -0.00041198
K        9.53218884       6.72425081       7.36348763       0.00029131      -0.00040298       0.00014246
K        9.74787020       5.48543705      11.61595826      -0.00001316      -0.00037299       0.00024546
K       11.68413921      12.87227828      10.48917312       0.00060618      -0.00002807      -0.00022220
K        9.30384748       9.77203009      12.66120823      -0.00015287       0.00007444      -0.00013588
K       10.77418467      10.89834235       6.54793462      -0.00022741       0.00044909      -0.00052060
K       12.67075731       8.52155254       9.93544754      -0.00013742      -0.00011802       0.00038186
9
Lattice="30.0 0.0 0.0 0.0 30.0 0.0 0.0 0.0 30.0" Properties=species:S:1:pos:R:3:forces:R:3 config_type=qcd dft_energy=-6.12968211 gap_energy=-5.780728465933004 relaxed_gap_energy=-5.829313017464596 energy=-5.829313017464596 free_energy=-5.829313017464596 pbc="T T T"
K       16.49211752      10.13644551      12.31823691      -0.00024820      -0.00040439      -0.00049878
K       14.63959893      14.15545418      13.12651575      -0.00042090       0.00038073      -0.00018114
K       15.93005351      11.49957776      16.52881198       0.00026341      -0.00007132       0.00025531
K       12.93883095      11.50423131       9.88777069       0.00016842       0.00019973       0.00026783
K       12.03970732      13.74634774      16.79989032      -0.00040576       0.00002872       0.00012537
K       12.39963945      10.02405461      14.17207945       0.00056068      -0.00027761       0.00023166
K       12.10445249      15.93678619       9.85604122       0.00011143      -0.00023452       0.00024479
K       11.55878910      17.30257126      14.07372735       0.00005184      -0.00002415      -0.00013957
K        9.90870001      13.32834626      12.78106233      -0.00008092       0.00040281      -0.00030547
9
Lattice="26.98049044274328 0.0 0.0 0.0 26.98049044274328 0.0 0.0 0.0 26.98049044274328" Properties=species:S:1:pos:R:3:forces:R:3 config_type=qcd dft_energy=-6.12776984 gap_energy=-5.776602775247435 relaxed_gap_energy=-5.82930954602274 energy=-5.82930954602274 free_energy=-5.82930954602274 pbc="T T T"
K       16.81932758      10.50919238      12.49200525      -0.00006782       0.00046353       0.00042755
K       15.02473315      14.56081448      13.31801740       0.00061650      -0.00038077       0.00041550
K       16.32744053      11.90835968      16.71197872      -0.00024788      -0.00053031      -0.00035394
K       13.27129508      11.91817175      10.09982294      -0.00012763      -0.00008811       0.00013661
K       12.45358238      14.18638289      17.01920141       0.00004038      -0.00031415      -0.00037813
K       12.75443553      10.45468710      14.39861766       0.00052922       0.00021802       0.00032839
K       12.49094879      16.35818091      10.06762467      -0.00044143       0.00028767      -0.00036367
K       11.98361849      17.73599901      14.29054652       0.00010437       0.00040491      -0.00012636
K       10.28682545      13.78041882      13.01439242      -0.00040572      -0.00006078      -0.00008594
10
Lattice="27.02496624423613 0.0 0.0 0.0 27.02496624423613 0.0 0.0 0.0 27.02496624423613" Properties=species:S:1:pos:R:3:forces:R:3 config_type=qcd dft_energy=-6.99622598 gap_energy=-6.501460872284501 relaxed_gap_energy=-6.523525691849614 energy=-6.523525691849614 free_energy=-6.523525691849614 pbc="T T T"
K       17.10248153      14.44655499      10.80144842       0.00030188       0.00022643      -0.00041884
K       13.02275005      12.40410360      10.95954334      -0.00014886      -0.00039246       0.00016312
K       16.94371493      10.08290757      11.30544171      -0.00014164      -0.00043036      -0.00038900
K       13.75096389      16.28873154      13.07776823       0.00034196       0.00033812       0.00068997
K        9.54665089      15.05475961      11.79003273      -0.00015127       0.00050324      -0.00048531
K       13.55586485       8.94195899      13.87348378       0.00006473      -0.00048958       0.00010093
K       11.39472851      12.60848898      15.15268698       0.00057020       0.00003407       0.00004272
K       15.87643607      12.74717036      14.85092933      -0.00040163       0.00035007       0.00055853
K       10.09612249      16.95679169      15.72011391      -0.00041675      -0.00036595       0.00024321
K       13.83511799      15.59336389      17.59338280      -0.00001860       0.00022642      -0.00050534
10
Lattice="29.8104292021513 0.0 0.0 0.0 29.8104292021513 0.0 0.0 0.0 29.8104292021513" Properties=species:S:1:pos:R:3:forces:R:3 config_type=qcd dft_energy=-6.98334665 gap_energy=-6.510520140232212 relaxed_gap_energy=-6.614011670583893 energy=-6.614011670583893 free_energy=-6.614011670583893 pbc="T T T"
K       14.28436091      13.21603003       9.84532385      -0.00037879      -0.00019549      -0.00023661
K       14.26479523      16.75781489      12.45463890       0.00031704       0.00035580       0.00053739
K       11.22234665      13.86012736      13.65419452       0.00002273       0.00018148      -0.00010836
K       18.13548453      14.73673051      12.51042134       0.00088738      -0.00029641      -0.00000425
K       15.12686349      11.92149769      13.96517287      -0.00046196       0.00007450      -0.00046452
K       16.99533561      17.88605443      15.70625705      -0.00032887       0.00006777      -0.00051350
K       13.26186074      13.14088632      17.74586286       0.00003175      -0.00035485       0.00017742
K       17.73655181      13.69950792      17.00760890       0.00026465       0.00001161       0.00019946
K       12.52456950      17.32752612      16.44075832      -0.00016281      -0.00041747       0.00030169
K       15.49997752      16.50597075      19.72190738      -0.00019113       0.00057306       0.00011127
10
Lattice="31.19262222307297 0.0 0.0 0.0 31.19262222307297 0.0 0.0 0.0 31.19262222307297" Properties=species:S:1:pos:R:3:forces:R:3 config_type=qcd dft_energy=-6.97901478 gap_energy=-6.475885978614197 relaxed_gap_energy=-6.614011680837436 energy=-6.614011680837436 free_energy=-6.614011680837436 pbc="T T T"
K       14.78318195      16.94593697      12.89318823      -0.00027374      -0.00034865      -0.00062266
K       13.25899710      13.04503753      14.20591306      -0.00033720      -0.00000459      -0.00030842
K       14.71245515      20.86010641      14.90897385       0.00008924      -0.00047093       0.00017404
K       18.69433693      17.95780346      14.55438491      -0.00012332      -0.00003138       0.00063437
K       17.67145942      13.65194384      13.18342657      -0.00001851       0.00038922      -0.00041702
K       16.43776620      10.60091236      16.24802444      -0.00025888      -0.00072331       0.00012151
K       18.56808202      14.36354082      17.48173703       0.00047955       0.00066761       0.00007065
K       15.81840556      17.76486390      17.84067231       0.00037185       0.00008990       0.00035173
K       11.86299850      17.01739673      16.14350270      -0.00005800       0.00013076      -0.00028977
K       14.15542830      13.75556911      18.50328803       0.00012901       0.00030135       0.00028556
10
Lattice="31.67747022373436 0.0 0.0 0.0 31.67747022373436 0.0 0.0 0.0 31.67747022373436" Properties=species:S:1:pos:R:3:forces:R:3 config_type=qcd dft_energy=-6.97818469 gap_energy=-6.415703041569098 relaxed_gap_energy=-6.523503956419743 energy=-6.523503956419743 free_energy=-6.523503956419743 pbc="T T T"
K       17.10667704      14.07835175      14.02916967       0.00024236       0.00029117       0.00010168
K       16.35193580      21.12118319      15.36020436       0.00030549       0.00017257      -0.00051237
K       14.04308502      17.33797358      14.25806923      -0.00005825       0.00047687      -0.00020751
K       18.26329213      18.17092064      12.71006434      -0.00051501       0.00001096      -0.00012059
K       15.32383640      10.55672948      16.32188125       0.00003304      -0.00041105       0.00021851
K       12.63395067      13.12846644      13.98242637      -0.00022312      -0.00021683      -0.00090077
K       13.95779190      19.11258922      18.45098688       0.00044142       0.00011835       0.00045375
K       18.49567081      12.94122374      18.21496998      -0.00024657       0.00043803       0.00022083
K       17.92037932      17.22593112      17.14843260      -0.00022410      -0.00025785       0.00028419
K       14.29073204      14.71398197      17.91114643       0.00024475      -0.00062223       0.00046229
10
Lattice="30.0 0.0 0.0 0.0 30.0 0.0 0.0 0.0 30.0" Properties=species:S:1:pos:R:3:forces:R:3 config_type=qcd dft_energy=-6.97398204 gap_energy=-6.559015422788954 relaxed_gap_energy=-6.611443178635516 energy=-6.611443178635516 free_energy=-6.611443178635516 pbc="T T T"