3
Lattice="15.609482090965 0.0 0.0 0.0 15.609482090965 0.0 0.0 0.0 15.609482090965" Properties=species:S:1:pos:R:3:forces:R:3 config_type=qcd dft_energy=-2.41722701 gap_energy=-2.152097266846914 relaxed_gap_energy=-2.192238480062165 energy=-2.192238480062165 free_energy=-2.192238480062165 pbc="T T T"
Li       7.23688056       7.11432808       6.37628432      -0.00012026       0.00044496       0.00067960
Li       6.76466462       8.70182182       8.77951816      -0.00063861      -0.00012139      -0.00051821
Li       9.41267796       7.59807323       8.25842066       0.00075887      -0.00032357      -0.00016139
4
Lattice="17.35831736314661 0.0 0.0 0.0 17.35831736314661 0.0 0.0 0.0 17.35831736314661" Properties=species:S:1:pos:R:3:forces:R:3 config_type=qcd dft_energy=-3.81058627 gap_energy=-3.165480826460961 relaxed_gap_energy=-3.5409134489942913 energy=-3.5409134489942913 free_energy=-3.5409134489942913 pbc="T T T"
Li       6.71862748       8.85259132       8.23534187      -0.00013572      -0.00000748      -0.00005292
Li       8.62625062       6.79208392       7.75530535       0.00005089       0.00023570       0.00004632
Li       9.39346330       9.52604891       7.52390815       0.00001389      -0.00016655      -0.00000948
Li       8.83811875       8.41456805      10.08733922       0.00007094      -0.00006167       0.00001607
5
Lattice="17.02439792233791 0.0 0.0 0.0 17.02439792233791 0.0 0.0 0.0 17.02439792233791" Properties=species:S:1:pos:R:3:forces:R:3 config_type=qcd dft_energy=-5.1728975 gap_energy=-4.824648372581243 relaxed_gap_energy=-4.862552932664833 energy=-4.862552932664833 free_energy=-4.862552932664833 pbc="T T T"
Li      10.83248016      12.74147263      12.67719132      -0.00015385       0.00014676       0.00000150
Li      12.10021117      11.82777358      10.23816955      -0.00016911       0.00040580      -0.00024026
Li      11.34334212       9.93928700      12.15112374      -0.00038562      -0.00013912       0.00051197
Li       9.39503264      11.25925794      10.64489236       0.00079741      -0.00000697       0.00036295
Li      11.05984621       9.27614063       9.34648417      -0.00008883      -0.00040647      -0.00063615
6
Lattice="19.21789308021007 0.0 0.0 0.0 19.21789308021007 0.0 0.0 0.0 19.21789308021007" Properties=species:S:1:pos:R:3:forces:R:3 config_type=qcd dft_energy=-6.71545476 gap_energy=-6.137313762993155 relaxed_gap_energy=-6.15072924810164 energy=-6.15072924810164 free_energy=-6.15072924810164 pbc="T T T"
Li       9.51659857       9.03085769      10.74915613      -0.00040353      -0.00011157      -0.00054544
Li      10.90698660      10.76653767       9.10091206      -0.00019795      -0.00024135      -0.00031969
Li       8.25772350       9.87755160       8.25462380       0.00075294       0.00007760       0.00057684
Li      11.23114614      10.95629262      11.89997168       0.00023652       0.00044877       0.00017938
Li       8.68034239      11.72153396      10.55142654      -0.00014995      -0.00016208       0.00016871
Li      12.39261980       8.63967085      10.43861390      -0.00023803      -0.00001138      -0.00005980
6
Lattice="17.68535155061271 0.0 0.0 0.0 17.68535155061271 0.0 0.0 0.0 17.68535155061271" Properties=species:S:1:pos:R:3:forces:R:3 config_type=qcd dft_energy=-6.68132061 gap_energy=-6.194930390481343 relaxed_gap_energy=-6.312275043340846 energy=-6.312275043340846 free_energy=-6.312275043340846 pbc="T T T"
Li       6.77224986       8.53753826       9.41438079       0.00012096      -0.00015584      -0.00012155
Li       9.35457274       7.83458883      10.15811116       0.00007748      -0.00019460       0.00037936
Li       8.74208007       7.10375576       7.54935840       0.00000950       0.00006396       0.00007266
Li       8.33092143       9.85057103       7.52712142      -0.00020988       0.00037284      -0.00032084
Li       8.94308104      10.58148622      10.13598626       0.00013756      -0.00000391      -0.00005458
Li      10.91314951       9.14811456       8.27109662      -0.00013562      -0.00008245       0.00004496
7
Lattice="17.09980255071067 0.0 0.0 0.0 17.09980255071067 0.0 0.0 0.0 17.09980255071067" Properties=species:S:1:pos:R:3:forces:R:3 config_type=qcd dft_energy=-8.48192478 gap_energy=-7.6914706800972725 relaxed_gap_energy=-7.699323989174443 energy=-7.699323989174443 free_energy=-7.699323989174443 pbc="T T T"
Li      10.06039555       9.91235070       6.85571269      -0.00021228      -0.00015989      -0.00062953
Li       7.62054186      11.01417147       8.22263716      -0.00009734       0.00026862      -0.00008604
Li       9.75794889       9.77947416       9.72581747       0.00057072      -0.00066056       0.00040099
Li       7.05487809       9.30631431      10.63055472      -0.00050533      -0.00006996       0.00003292
Li      10.99893440       7.52050760       8.41561564       0.00027803       0.00032694       0.00015014
Li       8.19222610       8.18121648       8.22317128       0.00002984       0.00021928       0.00019549
Li       9.14249396       7.14714033      10.74985483      -0.00006364       0.00007556      -0.00006397
8
Lattice="17.65076955970332 0.0 0.0 0.0 17.65076955970332 0.0 0.0 0.0 17.65076955970332" Properties=species:S:1:pos:R:3:forces:R:3 config_type=qcd dft_energy=-9.90117435 gap_energy=-8.68144194905423 relaxed_gap_energy=-8.736828027924709 energy=-8.736828027924709 free_energy=-8.736828027924709 pbc="T T T"
Li      11.69036735       9.93457855       8.88990659       0.00064487       0.00029624      -0.00029649
Li       9.86791099       8.01982263      11.35089125      -0.00000401      -0.00001893      -0.00049024
Li       9.83960584      11.03467852      11.02628406       0.00011800      -0.00026948      -0.00005137
Li       7.24094177       9.53503253      10.58361115      -0.00063974       0.00016817       0.00045768
Li       8.03183998       6.90905468       9.06731426      -0.00017432       0.00042085       0.00014155
Li       9.06419778      11.45250501       8.12503992      -0.00035017      -0.00067092       0.00008927
Li       9.30017289       9.16001030       9.16635444      -0.00026343       0.00008517       0.00017086
Li       9.81114091       8.78553931       6.65994094       0.00066881      -0.00001110      -0.00002126
8
Lattice="17.45147138825414 0.0 0.0 0.0 17.45147138825414 0.0 0.0 0.0 17.45147138825414" Properties=species:S:1:pos:R:3:forces:R:3 config_type=qcd dft_energy=-9.89552304 gap_energy=-8.862555898232513 relaxed_gap_energy=-8.964537776013346 energy=-8.964537776013346 free_energy=-8.964537776013346 pbc="T T T"
Li       6.80099307       9.93699609       8.53526221      -0.00000081       0.00002488      -0.00016616
Li       9.87614245       6.31682608       7.58817776       0.00000417      -0.00007395      -0.00022736
Li       6.96295886       7.12791735       7.40830507       0.00020269       0.00012452       0.00022761
Li       9.43292639      10.79291110       9.38329362       0.00024237       0.00021062       0.00016783
Li      11.43731382       8.58214036       8.85565193       0.00013841       0.00005015      -0.00032965
Li       7.45944088       9.92307188      11.44929561      -0.00018170      -0.00033154      -0.00014722
Li       8.67732786       8.06492866       9.53897946      -0.00032740       0.00048038      -0.00000235
Li       9.15878224       9.06109402       7.04691988      -0.00007773      -0.00048506       0.00047730
8
Lattice="17.80805708550142 0.0 0.0 0.0 17.80805708550142 0.0 0.0 0.0 17.80805708550142" Properties=species:S:1:pos:R:3:forces:R:3 config_type=qcd dft_energy=-9.87776864 gap_energy=-8.97426565098167 relaxed_gap_energy=-9.042385661058342 energy=-9.042385661058342 free_energy=-9.042385661058342 pbc="T T T"
Li       8.74422618      11.38163419      10.16760370       0.00026331       0.00038820       0.00034463
Li       6.36837762       9.70038027       9.73844201      -0.00066236       0.00006590      -0.00011867
Li       8.19919145      10.29478754       7.36143611       0.00021473       0.00006657      -0.00013517
Li       8.83410426       8.45423915      11.04944263      -0.00005300      -0.00024577       0.00019672
Li      10.40017084       9.32913887       8.85919827       0.00001262      -0.00008843      -0.00043198
Li       8.06648410       7.67882013       8.43619816       0.00040402      -0.00028178       0.00000377
Li      10.07103100       7.89157128       6.41831839      -0.00026289      -0.00004514       0.00017895
Li      10.54864290       6.50165691       9.20158906       0.00008358       0.00014044      -0.00003825
8
Lattice="17.71813189094655 0.0 0.0 0.0 17.71813189094655 0.0 0.0 0.0 17.71813189094655" Properties=species:S:1:pos:R:3:forces:R:3 config_type=qcd dft_energy=-9.87016701 gap_energy=-8.669108422583092 relaxed_gap_energy=-8.682768788235327 energy=-8.682768788235327 free_energy=-8.682768788235327 pbc="T T T"
Li       7.51711767      10.91619988      10.68958115       0.00007396      -0.00057428      -0.00030789
Li       9.79316952       9.05111401      10.28477147      -0.00037801       0.00013242       0.00055216
Li       7.28592834       8.31439277       9.27445521       0.00042069      -0.00006551       0.00061320
Li       8.74533391      10.36316873       8.04255131       0.00039352       0.00051742      -0.00003930
Li       9.06153770       6.17287005      10.31656866      -0.00035084       0.00019863       0.00005338
Li      11.66677941       9.83191884       8.11732730      -0.00011532       0.00007276      -0.00021062
Li       7.19174976       8.51555745       6.31301908      -0.00017668      -0.00008639      -0.00018463
Li       9.61091126       7.70730583       7.83425339       0.00013268      -0.00019506      -0.00047629
9
Lattice="17.805067 0.0 0.0 0.0 17.805067 0.0 0.0 0.0 17.805067" Properties=species:S:1:pos:R:3:forces:R:3 config_type=qcd dft_energy=-11.33358247 gap_energy=-10.4455604496819 relaxed_gap_energy=-10.509201960130834 energy=-10.509201960130834 free_energy=-10.509201960130834 pbc="T T T"
Li       6.36028477       8.83674490       8.86081576       0.00016650      -0.00024303       0.00056926
Li       8.93259340       8.92731737       8.94840131       0.00004966      -0.00001418      -0.00008391
Li       8.14537962       8.36265042      11.37081418      -0.00086788       0.00000338      -0.00048379
Li       8.24239855      10.41200273       6.87393845      -0.00023651       0.00059092      -0.00052301
Li      10.11421606       7.87059845       6.91863217       0.00031434      -0.00009478       0.00046803
Li      10.93728808      10.49662467       8.37860649       0.00002327      -0.00023967      -0.00059419
Li      10.98667494       7.62855612       9.89823168       0.00013985       0.00073930       0.00011383
Li       8.09224897      11.22835500       9.84648690       0.00062014      -0.00004399       0.00066565
Li       8.31171698       6.35995137       9.02687466      -0.00020938      -0.00069794      -0.00013189
9
Lattice="18.07056498940856 0.0 0.0 0.0 18.07056498940856 0.0 0.0 0.0 18.07056498940856" Properties=species:S:1:pos:R:3:forces:R:3 config_type=qcd dft_energy=-11.32752417 gap_energy=-10.478229776475738 relaxed_gap_energy=-10.50920424453775 energy=-10.50920424453775 free_energy=-10.50920424453775 pbc="T T T"
Li       9.87770868       9.23974831      12.04525687       0.00023007       0.00035064       0.00029056
Li       7.82220758      11.11977470      10.71469027      -0.00000484       0.00034780       0.00007320
Li       7.61266444       7.85194986      10.47288381       0.00032439      -0.00012902      -0.00014250
Li      10.84473359      11.50299322      10.06511616      -0.00094879      -0.00002404       0.00014396
Li      11.38377467       9.46483257       7.71538248       0.00069287      -0.00037324      -0.00049633
Li       8.88647740      11.27774669       7.65274753       0.00014494       0.00039027       0.00019809
Li       8.67834692       8.01004306       7.41141377      -0.00011201      -0.00024270       0.00005444
Li      10.56840486       7.18814641       9.74686847      -0.00064557       0.00027945      -0.00037979
Li       9.39571833       9.46276641       9.45630755       0.00031893      -0.00059915       0.00025836
10
Lattice="19.85398560003841 0.0 0.0 0.0 19.85398560003841 0.0 0.0 0.0 19.85398560003841" Properties=species:S:1:pos:R:3:forces:R:3 config_type=qcd dft_energy=-12.84725537 gap_energy=-11.713052197051077 relaxed_gap_energy=-11.764514460590952 energy=-11.764514460590952 free_energy=-11.764514460590952 pbc="T T T"
Li       9.14134478       6.16167059       7.05385392      -0.00002209       0.00005485       0.00006432
Li      10.28044543       9.59200966      10.24655798       0.00015945      -0.00020987      -0.00013696
Li       8.43396967       7.52532830       9.49717119      -0.00007196       0.00020991       0.00052578
Li      10.21096404      11.82070825       8.34014483       0.00008285      -0.00035513       0.00032986
Li       7.87064332       9.29439481      11.89134825      -0.00006468      -0.00002940      -0.00052263
Li       7.82884396      10.30760467       9.13878112      -0.00002774      -0.00003786      -0.00036525
Li      11.28477923       6.99146371       9.06142913      -0.00008860       0.00011478      -0.00010580
Li       6.93124738       8.26584745       7.08893938      -0.00008828      -0.00023172       0.00041925
Li       9.00754329      12.02435829      11.13723114      -0.00004720      -0.00021192      -0.00011150
Li       9.75371420       8.94636194       7.50028526       0.00016825       0.00069636      -0.00009706
11
Lattice="17.962 0.0 0.0 0.0 17.962 0.0 0.0 0.0 17.962" Properties=species:S:1:pos:R:3:forces:R:3 config_type=qcd dft_energy=-14.32120519 gap_energy=-13.765780644558866 relaxed_gap_energy=-13.815341822990689 energy=-13.815341822990689 free_energy=-13.815341822990689 pbc="T T T"
Li       9.28489454       8.16594605       6.43437448       0.00013613      -0.00004819       0.00018005
Li       8.74183811       6.30152929       8.92639747      -0.00004601      -0.00001814       0.00027343
Li      11.19035909      10.33823133       7.21152942       0.00000624       0.00001449      -0.00003104
Li      11.45370208       7.92142102       8.95601958       0.00069301       0.00007180      -0.00030829
Li       8.33316933      11.16171241       7.54425695      -0.00031895       0.00014363       0.00004023
Li       6.53462447       8.59198045       7.93013346       0.00016114       0.00010783      -0.00001490
Li      10.50146602      10.91887762      10.06490171      -0.00004257      -0.00027827      -0.00011977
Li       7.39465799      10.53854813      10.49705096       0.00025355      -0.00008501      -0.00028197
Li       6.77264803       7.62266490      10.75105714       0.00000279       0.00018418      -0.00014163
Li       9.60244184       8.24898555      11.49452425      -0.00022383      -0.00023620      -0.00008003
Li       8.98119838       8.98110325       8.98075445      -0.00062151       0.00014387       0.00048391
12
Lattice="20.3720877853619 0.0 0.0 0.0 20.3720877853619 0.0 0.0 0.0 20.3720877853619" Properties=species:S:1:pos:R:3:forces:R:3 config_type=qcd dft_energy=-15.79627185 gap_energy=-14.910797002682191 relaxed_gap_energy=-15.025815335679306 energy=-15.025815335679306 free_energy=-15.025815335679306 pbc="T T T"
Li      11.04470704       8.76623886       7.15973349       0.00030185       0.00081094      -0.00029664
Li       8.21827286       7.60132194       6.30505717       0.00015766      -0.00048741      -0.00060783
Li       8.67822200      10.87131576       6.85220702       0.00001495      -0.00031415       0.00011353
Li       6.05606584       9.46779415       7.22348587      -0.00019277       0.00017420       0.00016932
Li       9.61713607       6.28841888       8.83407233      -0.00052133      -0.00051486       0.00052421
Li       8.75716223       8.84756344       8.60874488       0.00002110      -0.00005408       0.00028713
Li       6.63891267       7.33152946       9.24365204       0.00038146       0.00029400      -0.00024410
Li       7.10252296      10.60695730       9.80166294      -0.00034134       0.00033107       0.00025165
Li      11.45404522       8.33140565      10.14481519       0.00028839      -0.00011926      -0.00010015
Li       8.81771357       8.43319608      11.31586721       0.00031005       0.00024824       0.00021660
Li      10.24069537      10.90305688       9.64737920       0.00011872      -0.00022456       0.00039576
Li      10.99987576      10.17653315      12.48865422      -0.00053874      -0.00014413      -0.00070948
13
Lattice="17.26580106250383 0.0 0.0 0.0 17.26580106250383 0.0 0.0 0.0 17.26580106250383" Properties=species:S:1:pos:R:3:forces:R:3 config_type=qcd dft_energy=-17.58823809 gap_energy=-17.048999090481203 relaxed_gap_energy=-17.0494479474203 energy=-17.0494479474203 free_energy=-17.0494479474203 pbc="T T T"
Li       9.72588277      11.49224833       8.13718417      -0.00004138      -0.00013911      -0.00012067
Li      12.52987187      10.31275594       8.49011393       0.00042151      -0.00046038       0.00015762
Li      10.06166788       8.56509622       8.97695351      -0.00045223       0.00007088       0.00027784
Li      12.45632598       8.39508102      10.87935968       0.00030129      -0.00019527      -0.00021700
Li      10.76123397      10.75704633      10.75924382      -0.00013011       0.00022212      -0.00005648
Li       7.91824479      10.30476804      10.30753324       0.00033612      -0.00008700      -0.00032754
Li      11.91435715      13.13016393       9.52054331      -0.00004496       0.00008126      -0.00047743
Li      13.60207480      11.21553205      11.21434430      -0.00001569       0.00041860      -0.00008841
Li       9.06456086      13.12527463      10.64079059      -0.00024386       0.00037234       0.00036934
Li       9.60683050       8.39154421      12.00308562      -0.00027897      -0.00030510      -0.00048076
Li      11.45858971      12.95512474      12.54312493       0.00051123       0.00040449       0.00008137
Li      11.79454059      10.02995176      13.38359524       0.00015578      -0.00018052       0.00047138
Li       8.99101450      11.21060818      13.02932304      -0.00051873      -0.00020231       0.00041074
14
Lattice="17.84289439 0.0 0.0 0.0 17.84289439 0.0 0.0 0.0 17.84289439" Properties=species:S:1:pos:R:3:forces:R:3 config_type=qcd dft_energy=-19.04700928 gap_energy=-17.642327721671286 relaxed_gap_energy=-17.77040386928207 energy=-17.77040386928207 free_energy=-17.77040386928207 pbc="T T T"
Li       8.91796787       6.24596467       6.60054199       0.00024778       0.00016799       0.00034620
Li       8.92259809      10.30905664       8.91975401       0.00062048      -0.00002046      -0.00008958
Li      10.62060382       8.92172346      10.62027869      -0.00018884       0.00020766       0.00003177
Li       6.59452089       6.25186370       8.92477611       0.00009571      -0.00030247       0.00020575
Li       7.22233209       8.92074222       7.22291051      -0.00014909       0.00015455      -0.00042181
Li      10.62032313       8.91737011       7.22177042      -0.00064352       0.00031340       0.00036211
Li      11.24769540      11.59131613       8.91773108      -0.00014910      -0.00003118      -0.00003397
Li       6.60030858      11.59577219       8.91845592      -0.00013760       0.00010238       0.00006010
Li       8.91982957       6.25159578      11.24896609      -0.00018956       0.00021034      -0.00035129
Li       8.91998827       7.53294195       8.92319451       0.00061376       0.00027249       0.00001607
Li       8.92349812      11.59175232       6.59469921       0.00005002      -0.00053027       0.00016189
Li       7.22265234       8.92487346      10.62102318       0.00031293       0.00019002      -0.00004333
Li       8.92440168      11.59759109      11.24146967      -0.00002762      -0.00048537      -0.00007149
Li      11.24354088       6.24769701       8.92468936      -0.00045534      -0.00024909      -0.00017243
14
Lattice="20.56705132702481 0.0 0.0 0.0 20.56705132702481 0.0 0.0 0.0 20.56705132702481" Properties=species:S:1:pos:R:3:forces:R:3 config_type=qcd dft_energy=-19.03159168 gap_energy=-17.75262447221621 relaxed_gap_energy=-17.79128328287357 energy=-17.79128328287357 free_energy=-17.79128328287357 pbc="T T T"
Li       9.17628020       6.84716530      10.42714483      -0.00027506       0.00031341       0.00019181
Li       6.59609121       8.56141823      10.49647497      -0.00030764       0.00034708       0.00045846
Li       8.83611556       9.11076643      12.32465174       0.00003158       0.00005712      -0.00015172
Li      11.47525072       8.69554439      10.92249362      -0.00006762      -0.00063091       0.00029185
Li       9.10975553       9.57469512       9.52184059       0.00077271      -0.00023405      -0.00020996
Li      11.13294369       7.85848671       8.18961001      -0.00021074      -0.00000794      -0.00037661
Li      10.44080349      11.44257560      11.32885130       0.00059527      -0.00037664      -0.00025046
Li      13.90439327       8.67992674       9.27380668       0.00025434      -0.00002493      -0.00009860
Li       7.49705421      11.51721334      11.06085954      -0.00008863       0.00005965       0.00000921
Li      13.37061943      10.96581030      11.27929145       0.00005208       0.00004949       0.00047812
Li      11.78723111      10.67815476       8.89284334       0.00010735       0.00061720      -0.00030274
Li       9.37969764      12.49724265       8.89823140       0.00011046      -0.00011296       0.00010442
Li      11.97803452      13.45999747       9.97590774      -0.00040557      -0.00006436       0.00002935
Li       9.28508871      14.08036225      11.37735208      -0.00056853       0.00000785      -0.00017314
14
Lattice="30.0 0.0 0.0 0.0 30.0 0.0 0.0 0.0 30.0" Properties=species:S:1:pos:R:3:forces:R:3 config_type=qcd dft_energy=-19.00302069 gap_energy=-17.71740109997133 relaxed_gap_energy=-17.96238041246882 energy=-17.96238041246882 free_energy=-17.96238041246882 pbc="T T T"
Li      12.84611027       9.55581047       7.89666694       0.00004587      -0.00010199      -0.00028878
Li      10.67298571       7.26988088       7.66703778       0.00016871       0.00010609      -0.00009258
Li      12.13828059       7.16651835      10.46715320      -0.00007683       0.00030270       0.00001370
Li       9.22464313      10.08207983       7.54079861       0.00011736      -0.00005454       0.00002692
Li      12.70332796      10.41170548      11.14509833      -0.00004410      -0.00003783      -0.00007468
Li      10.91554730       9.26119646       9.58399822       0.00020502      -0.00017268       0.00008951
Li      11.05813403      12.10315655       9.02857470       0.00004550       0.00004320      -0.00013488
Li       8.56054322       7.83910483       9.95468976      -0.00021443       0.00014903       0.00001099
Li      10.05950154      12.15406285      12.03610730      -0.00006791       0.00000783       0.00001666
Li       8.92175867      10.57531824      10.25571912       0.00000112      -0.00024269       0.00012733
Li      10.13983391       9.00269100      12.36522813      -0.00009819      -0.00004999       0.00012143
Li       7.87347383      12.83253944       9.57224624       0.00011515       0.00017465      -0.00002730
Li       6.46211832      10.04497545       9.08616601       0.00005261      -0.00004221       0.00024506
Li       7.16653487      10.44375350      12.14330901      -0.00024988      -0.00008156      -0.00003337
15
Lattice="18.45253986265039 0.0 0.0 0.0 18.45253986265039 0.0 0.0 0.0 18.45253986265039" Properties=species:S:1:pos:R:3:forces:R:3 config_type=qcd dft_energy=-20.66806585 gap_energy=-19.440623556987564 relaxed_gap_energy=-19.490463157760473 energy=-19.490463157760473 free_energy=-19.490463157760473 pbc="T T T"
Li       9.64913753       7.89770838       5.73361938      -0.00001691      -0.00006172       0.00000973
Li       7.35611784       8.98602423       7.66140478       0.00002993       0.00001630      -0.00005767
Li      10.64647708      10.31611941       7.55363389       0.00006158       0.00025258      -0.00010991
Li       8.00260568      12.16280744       8.11505413       0.00011502      -0.00026096       0.00013213
Li       8.69004125       5.71020066       7.77440465      -0.00004353       0.00017591       0.00021304
Li      11.97072746       7.03714188       7.66754781       0.00004722      -0.00019502      -0.00006001
Li       9.71546113       7.96179357       8.55941481      -0.00022992      -0.00007771      -0.00011682
Li       8.80875479      10.30461093       9.79546476       0.00062874       0.00034196      -0.00025327
Li      10.61078317       5.88434797      10.25464090       0.00005760       0.00005735       0.00001627
Li       6.21890269      10.33299344      10.35892746      -0.00058877       0.00004191       0.00019037
Li      10.67976701      12.13632582      10.21229122      -0.00017264      -0.00004241       0.00014950
Li       7.99073975       7.65697150      10.64617118       0.00015297      -0.00011262      -0.00006256
Li      11.28197207       8.98744107      10.53820291      -0.00000863      -0.00007355       0.00013916
Li       7.85302326      12.77575788      11.09918775      -0.00003515      -0.00002071       0.00000034
Li       8.91953829      10.24380479      12.42408334       0.00000251      -0.00004131      -0.00019030
15
Lattice="19.17914644099555 0.0 0.0 0.0 19.17914644099555 0.0 0.0 0.0 19.17914644099555" Properties=species:S:1:pos:R:3:forces:R:3 config_type=qcd dft_energy=-20.66243693 gap_energy=-19.56835310380959 relaxed_gap_energy=-19.63672893896476 energy=-19.63672893896476 free_energy=-19.63672893896476 pbc="T T T"
Li       9.39067848       7.40003884       8.39068688       0.00062370      -0.00026153      -0.00014802
Li      10.41331274       9.74985350       6.16658303      -0.00002820       0.00003382      -0.00049462
Li       8.72466312      11.88494488      10.62228125      -0.00030975       0.00035156       0.00001378
Li       7.68020560      10.25830821       8.11346355       0.00003921       0.00058249      -0.00043428
Li      10.47369331      10.03829774       8.75795535       0.00025152      -0.00016026      -0.00000207
Li      12.45350308       8.33914552       8.26052590      -0.00031399      -0.00006200      -0.00008802
Li       6.42478592       7.67497446       9.37383801      -0.00048401      -0.00016416      -0.00009146
Li      11.72371772      10.98226046      10.79957765       0.00034240       0.00043281       0.00032106
Li      12.75365296      11.30066995       7.70254110       0.00017258      -0.00007334      -0.00024459
Li       9.97097287      12.48509651       7.85649372      -0.00005170       0.00019591       0.00002001
Li       8.71215518       9.14628532      10.43011551       0.00010737      -0.00056280      -0.00041036
Li       8.13256636       7.02264339      11.85733972       0.00002420       0.00032643       0.00039632
Li       6.45672652       9.82503642      11.58496795      -0.00006633      -0.00023299       0.00061655
Li      11.09773782       7.91591221      11.00725200      -0.00007409      -0.00029852       0.00026065
Li       9.43522661       9.82013091      12.91997667      -0.00023291      -0.00010741       0.00028506
16
Lattice="19.73292710648955 0.0 0.0 0.0 19.73292710648955 0.0 0.0 0.0 19.73292710648955" Properties=species:S:1:pos:R:3:forces:R:3 config_type=qcd dft_energy=-22.43401806 gap_energy=-21.385693580562304 relaxed_gap_energy=-21.403164966573087 energy=-21.403164966573087 free_energy=-21.403164966573087 pbc="T T T"
Li      12.24791006       7.27114397       9.02283947       0.00005962       0.00006970       0.00017066
Li      12.81082995      10.09884177       7.49143627       0.00021571      -0.00001888      -0.00016111
Li      10.30019012       8.17017838       6.70115988      -0.00006730      -0.00026129       0.00005017
Li      13.02156724       9.96211018      10.57139497      -0.00033426       0.00016663      -0.00005135
Li       8.81194357       7.46045780       9.82085394       0.00033268      -0.00006802      -0.00044084
Li      10.96823074       8.14000909      11.69006727       0.00002221       0.00003745       0.00009152
Li      10.72865969       9.47360201       8.99917413      -0.00071844      -0.00042940       0.00001653
Li      10.02552969      11.34091962       7.00167208       0.00003548      -0.00001455      -0.00031522
Li       7.87790959       9.56439756       8.00225115       0.00006008       0.00028723      -0.00001238
Li      10.79895855      10.88783715      12.78127605      -0.00003242      -0.00010251       0.00032471
Li       8.98029200      10.20434080      10.73283797       0.00002900      -0.00089012      -0.00033873
Li       6.33251480       9.82441023      10.65678243       0.00012536       0.00027174       0.00009880
Li       8.28025763       8.92681127      12.97781169      -0.00000612      -0.00003016       0.00028747
Li      10.87066088      12.16183368       9.91220166       0.00024411       0.00084995      -0.00001159
Li       7.80523470      12.27050562       9.21096855       0.00012273      -0.00004980       0.00006492
Li       8.00272765      12.10601772      12.29068935      -0.00008842       0.00018202       0.00022645
16
Lattice="22.71207271728164 0.0 0.0 0.0 22.71207271728164 0.0 0.0 0.0 22.71207271728164" Properties=species:S:1:pos:R:3:forces:R:3 config_type=qcd dft_energy=-22.41750824 gap_energy=-21.373868311215574 relaxed_gap_energy=-21.403162103243062 energy=-21.403162103243062 free_energy=-21.403162103243062 pbc="T T T"
Li      11.08047591      10.43368548       7.68781399      -0.00026706       0.00001947       0.00020162
Li      11.29529112       9.85242595      10.51789791       0.00004855       0.00012564      -0.00020009
Li      10.86629892      12.68288944       9.56071245      -0.00014967      -0.00014238      -0.00079194