3
Lattice="30.0 0.0 0.0 0.0 30.0 0.0 0.0 0.0 30.0" Properties=species:S:1:pos:R:3:forces:R:3 config_type=qcd dft_energy=-0.56510983 gap_energy=-0.4644416693837747 relaxed_gap_energy=-0.46444386164647317 energy=-0.46444386164647317 free_energy=-0.46444386164647317 pbc="T T T"
Mg       6.66087674       5.39606973       4.69878341       0.00001518      -0.00020894      -0.00007494
Mg       6.37521043       8.26168085       6.22199422      -0.00001112       0.00033438       0.00003564
Mg       6.15634739       5.48759422       7.91629176      -0.00000406      -0.00012544       0.00003930
4
Lattice="30.0 0.0 0.0 0.0 30.0 0.0 0.0 0.0 30.0" Properties=species:S:1:pos:R:3:forces:R:3 config_type=qcd dft_energy=-1.52633733 gap_energy=-0.97279396034704 relaxed_gap_energy=-0.9733227486885238 energy=-0.9733227486885238 free_energy=-0.9733227486885238 pbc="T T T"
Mg       9.05724905       7.27812786       7.85178421       0.00012406       0.00041030       0.00001176
Mg       9.84154656      10.25613843       8.04420792      -0.00035577      -0.00063296       0.00024726
Mg       9.51529197       8.57739143      10.61228433       0.00017156       0.00009432      -0.00009955
Mg       7.03588810       9.33831794       8.94169922       0.00006016       0.00012834      -0.00015948
5
Lattice="30.0 0.0 0.0 0.0 30.0 0.0 0.0 0.0 30.0" Properties=species:S:1:pos:R:3:forces:R:3 config_type=qcd dft_energy=-1.94687261 gap_energy=-1.467989022135305 relaxed_gap_energy=-1.51654723544311 energy=-1.51654723544311 free_energy=-1.51654723544311 pbc="T T T"
Mg      10.05387638       9.82327229       8.21955419      -0.00015652       0.00014513      -0.00083018
Mg      10.14764865      12.26147534      10.20670934       0.00002078      -0.00014738       0.00068590
Mg      12.29596520      10.13158482      10.40510445       0.00012175      -0.00021595       0.00056653
Mg       9.46353027       9.51521978      11.29424387       0.00016339      -0.00002240       0.00043068
Mg      11.21773154      11.44719981      13.05314020      -0.00014941       0.00024060      -0.00085293
6
Lattice="16.93255474366366 0.0 0.0 0.0 16.93255474366366 0.0 0.0 0.0 16.93255474366366" Properties=species:S:1:pos:R:3:forces:R:3 config_type=qcd dft_energy=-2.45833601 gap_energy=-2.081157145379064 relaxed_gap_energy=-2.1569998930011116 energy=-2.1569998930011116 free_energy=-2.1569998930011116 pbc="T T T"
Mg       9.50193215      10.34003484       9.38178017      -0.00082922      -0.00032344      -0.00031774
Mg      10.63271830       7.72679770       8.04764643       0.00092446      -0.00029346       0.00000598
Mg       8.33836775       5.83765563       7.15272248      -0.00010134       0.00042113       0.00039755
Mg       7.93378819       8.95622712       7.05390517      -0.00023000       0.00021012       0.00017429
Mg       7.99299238       7.62023402       9.72281915      -0.00003630      -0.00027714      -0.00034296
Mg       6.39786547      10.31671492       9.43879082       0.00027241       0.00026279       0.00008288
6
Lattice="17.49501829694708 0.0 0.0 0.0 17.49501829694708 0.0 0.0 0.0 17.49501829694708" Properties=species:S:1:pos:R:3:forces:R:3 config_type=qcd dft_energy=-2.44220401 gap_energy=-2.009837287595038 relaxed_gap_energy=-2.156999727339874 energy=-2.156999727339874 free_energy=-2.156999727339874 pbc="T T T"
Mg       9.95269074       7.71876136      10.45288864       0.00008991       0.00039782      -0.00003888
Mg      11.54876136       8.46334599       7.89662509      -0.00057985      -0.00052248      -0.00010347
Mg       8.52996048       7.60358145       7.66909525       0.00014602       0.00017752      -0.00023013
Mg       9.15731335      10.27777380       8.83694597       0.00002074       0.00022572       0.00089619
Mg       6.92963154       8.54440056      10.18787733       0.00039595       0.00007350      -0.00030386
Mg       6.36669741       9.87719173       7.44162261      -0.00007278      -0.00035208      -0.00021986
7
Lattice="16.660842 0.0 0.0 0.0 16.660842 0.0 0.0 0.0 16.660842" Properties=species:S:1:pos:R:3:forces:R:3 config_type=qcd dft_energy=-3.31455205 gap_energy=-2.8622904449993958 relaxed_gap_energy=-2.8995818408770444 energy=-2.8995818408770444 free_energy=-2.8995818408770444 pbc="T T T"
Mg       8.38261515       7.20714069       7.25268344      -0.00047429       0.00021038      -0.00040701
Mg       5.64807849       8.44158339       8.08513189       0.00006503       0.00000055      -0.00011269
Mg       7.74323659      10.13799224       6.41855544      -0.00008665      -0.00009541      -0.00003745
Mg      10.64989033       9.33634272       7.39458455      -0.00017274      -0.00001724      -0.00015759
Mg      10.35078169       7.14430054       9.66292974       0.00047078       0.00011562       0.00071486
Mg       7.26024196       6.59176041      10.09092335      -0.00012676       0.00003346      -0.00019135
Mg       8.27810279       9.45382700       9.40813857       0.00032463      -0.00024736       0.00019123
8
Lattice="30.0 0.0 0.0 0.0 30.0 0.0 0.0 0.0 30.0" Properties=species:S:1:pos:R:3:forces:R:3 config_type=qcd dft_energy=-4.04468269 gap_energy=-3.6103271874056295 relaxed_gap_energy=-3.7030216841619206 energy=-3.7030216841619206 free_energy=-3.7030216841619206 pbc="T T T"
Mg      11.25956244       9.90561774       7.60366465       0.00040226      -0.00073387       0.00045745
Mg       8.46225664      10.55079704       6.52917193      -0.00010523       0.00042598      -0.00020120
Mg       8.90998362       7.88091714       8.18244263       0.00000598      -0.00022392      -0.00058277
Mg       6.45001129       9.78425006       8.71079418      -0.00035561      -0.00050550       0.00034487
Mg       9.13586700      11.10250898       9.51606635      -0.00010320       0.00060791       0.00000311
Mg       7.95756824       8.66174342      11.10420097      -0.00046678       0.00017472       0.00027293
Mg       9.52439981       6.07974990      10.65481988      -0.00003812       0.00002555      -0.00012431
Mg      11.00451004       8.73857480      10.40299848       0.00066070       0.00022914      -0.00017008
9
Lattice="30.0 0.0 0.0 0.0 30.0 0.0 0.0 0.0 30.0" Properties=species:S:1:pos:R:3:forces:R:3 config_type=qcd dft_energy=-5.28168784 gap_energy=-4.702752208253655 relaxed_gap_energy=-4.742824583715548 energy=-4.742824583715548 free_energy=-4.742824583715548 pbc="T T T"
Mg       7.30142399       9.93585914      10.02424001      -0.00055492       0.00060864       0.00005370
Mg       9.26994361      11.60421093       8.36825178      -0.00055287      -0.00039659       0.00040464
Mg       9.11586249      11.95133053      11.37364665      -0.00009385      -0.00003110       0.00006566
Mg       8.73214729       8.67915725       7.62205999       0.00031782       0.00026294       0.00060810
Mg      11.63196106      10.68892885      10.25628222       0.00018274      -0.00034625      -0.00027877
Mg       9.66374116       9.02109816      11.91229979      -0.00035612      -0.00000764      -0.00063771
Mg      11.51451081       9.84496480       7.34931868       0.00041247      -0.00021662      -0.00019912
Mg       8.21589757       7.05034238      10.12377193       0.00001614       0.00002988       0.00006946
Mg      11.09442699       7.76402292       9.51004392       0.00062859       0.00009674      -0.00008598
10
Lattice="30.0 0.0 0.0 0.0 30.0 0.0 0.0 0.0 30.0" Properties=species:S:1:pos:R:3:forces:R:3 config_type=qcd dft_energy=-6.51196827 gap_energy=-5.614304170871816 relaxed_gap_energy=-5.651626821641243 energy=-5.651626821641243 free_energy=-5.651626821641243 pbc="T T T"
Mg      11.69841555      10.90180454       8.14741761      -0.00044443       0.00024248       0.00021455
Mg      12.74563644      10.13963163      10.85714668      -0.00009199      -0.00016069       0.00006484
Mg      10.77574978      12.39744385      10.65080245      -0.00014360      -0.00046962      -0.00044758
Mg       9.46477818       9.15841196       7.15141667      -0.00011649       0.00023043      -0.00011599
Mg       7.94263292      11.62572682      11.28171369      -0.00012447      -0.00002674      -0.00007333
Mg      10.06473847       9.67279968      12.14419923      -0.00012783      -0.00008623       0.00034110
Mg       8.78658362      11.80248644       8.40466928       0.00065165       0.00004040       0.00008524
Mg       9.13505445       6.85901419      11.48540620       0.00037840       0.00071565      -0.00004302
Mg       7.93894990       9.03814571       9.74343639      -0.00013080      -0.00020872       0.00009996
Mg      11.05079686       8.07496197       9.46902924       0.00014957      -0.00027696      -0.00012577
11
Lattice="30.0 0.0 0.0 0.0 30.0 0.0 0.0 0.0 30.0" Properties=species:S:1:pos:R:3:forces:R:3 config_type=qcd dft_energy=-6.95780989 gap_energy=-6.231739875441026 relaxed_gap_energy=-6.465206601568967 energy=-6.465206601568967 free_energy=-6.465206601568967 pbc="T T T"
Mg      10.47190797      11.07984389       7.07144981       0.00022345       0.00021174      -0.00024892
Mg       8.71251173       8.66188712       7.37796096      -0.00039279      -0.00067606      -0.00017887
Mg      11.79589212       8.76830403       8.43990961       0.00039259       0.00027371       0.00012959
Mg       8.10993963      11.39265252       8.88465800      -0.00039215       0.00004670       0.00008641
Mg      10.48181302       6.19560738       7.52148023      -0.00019493      -0.00005775       0.00004104
Mg       6.88949770       8.67985162       9.74622531       0.00003648       0.00019111       0.00001779
Mg       6.12323966      11.21569112      11.21850968       0.00000578      -0.00000965      -0.00002763
Mg      10.96066267      11.43769716       9.99778527       0.00050925       0.00051231       0.00027697
Mg      11.67080298       8.91198920      11.42869969       0.00027623       0.00006133       0.00009158
Mg       9.48507949       7.26492015      10.18542540      -0.00030699      -0.00048083      -0.00022407
Mg       8.88978012       9.98268290      11.71902314      -0.00015692      -0.00007261       0.00003610
12
Lattice="30.0 0.0 0.0 0.0 30.0 0.0 0.0 0.0 30.0" Properties=species:S:1:pos:R:3:forces:R:3 config_type=qcd dft_energy=-7.67894289 gap_energy=-6.978115055017146 relaxed_gap_energy=-7.185015267522066 energy=-7.185015267522066 free_energy=-7.185015267522066 pbc="T T T"
Mg       7.42219781      13.46626112       6.75547846       0.00016636      -0.00051619      -0.00048006
Mg       9.74668675      11.58504842       7.54670283      -0.00039290       0.00058997      -0.00024999
Mg      10.54220892       6.76791143       8.46747653      -0.00049169      -0.00004164      -0.00038703
Mg       8.47825809       8.92032350       8.57218238      -0.00021554       0.00033218       0.00003280
Mg      11.68485305       9.56017392       8.53144118       0.00039579       0.00002564      -0.00000047
Mg       7.30842135      11.73827657       9.30451047       0.00039267      -0.00041413       0.00009699
Mg      12.05787698       7.40693430      10.94570828      -0.00038901       0.00012947      -0.00005794
Mg       9.02144616       7.07675988      11.05647569      -0.00019416      -0.00024749      -0.00004992
Mg      12.77455819      10.27693355      11.25287873       0.00001560       0.00027964       0.00047669
Mg      10.13467462      11.52548646      10.64172476       0.00003139       0.00032631       0.00003948
Mg       7.73445052       9.74775275      11.45814577       0.00052066      -0.00026143       0.00036182
Mg      10.37956917       9.21333970      12.75247654       0.00016084      -0.00020233       0.00021764
12
Lattice="30.0 0.0 0.0 0.0 30.0 0.0 0.0 0.0 30.0" Properties=species:S:1:pos:R:3:forces:R:3 config_type=qcd dft_energy=-7.63463831 gap_energy=-7.264365990624371 relaxed_gap_energy=-7.40393033263743 energy=-7.40393033263743 free_energy=-7.40393033263743 pbc="T T T"
Mg      11.15343634      11.94321291       6.43707154       0.00011705       0.00027402      -0.00038981
Mg      10.82367882       9.22583252       7.75928096      -0.00016289      -0.00078984       0.00047726
Mg       8.95023991      11.74614714       8.52240687      -0.00049431      -0.00015983       0.00069779
Mg       8.00023003       8.92310875       8.67069186       0.00026916       0.00037184      -0.00054496
Mg      12.11492583      11.78972395       9.30438185      -0.00018378      -0.00020511       0.00032543
Mg      12.87751213       8.99407459       9.94458994       0.00013077      -0.00007962       0.00003388
Mg      10.23531542       7.73239703      10.45497300       0.00028612       0.00025371      -0.00008021
Mg      10.01253130      12.84840101      11.11164940      -0.00003292       0.00005383       0.00009041
Mg       7.24614659       7.58506299      11.23834739      -0.00046027      -0.00032672      -0.00002351
Mg      11.31052722      10.34221008      12.11013543       0.00015442       0.00028964      -0.00039740
Mg       8.14508688      10.54442287      11.30648906       0.00033448       0.00022720      -0.00010372
Mg       9.28115095       8.47618757      13.29076412       0.00004216       0.00009086      -0.00008516
13
Lattice="30.0 0.0 0.0 0.0 30.0 0.0 0.0 0.0 30.0" Properties=species:S:1:pos:R:3:forces:R:3 config_type=qcd dft_energy=-8.59843313 gap_energy=-7.778968453890977 relaxed_gap_energy=-8.033668259314242 energy=-8.033668259314242 free_energy=-8.033668259314242 pbc="T T T"
Mg       8.93302262      11.30472611       6.97162604      -0.00019130       0.00021493      -0.00031590
Mg      11.90703554      11.39379154       7.05212976      -0.00001617      -0.00030428       0.00013644
Mg      10.24877641       8.79329765       8.02217197      -0.00002615       0.00007959       0.00017319
Mg      10.27632785      13.05613072       9.03243115      -0.00048619      -0.00045776      -0.00059466
Mg       8.90026660       7.61163602      10.39682906      -0.00010658      -0.00033982       0.00001321
Mg      13.21217669       9.11907084       8.46862885       0.00029703      -0.00073378      -0.00050503
Mg       8.31602459      10.69801073       9.84758884      -0.00050878       0.00012671       0.00075042
Mg      11.57689498       9.04844945      10.98254496       0.00030911       0.00078560       0.00009890
Mg      12.88416805      11.73517712       9.91720285       0.00054492       0.00030627       0.00075629
Mg       6.33780308       8.98560701      11.48625546       0.00003827       0.00037604       0.00006296
Mg       7.62068061       6.75074791      13.13649937      -0.00002148      -0.00046962      -0.00068638
Mg      10.52982943      11.83765780      11.74266640       0.00001288       0.00011877       0.00014706
Mg       9.07723623       9.48593977      12.76366797       0.00015446       0.00029736      -0.00003652
14
Lattice="30.0 0.0 0.0 0.0 30.0 0.0 0.0 0.0 30.0" Properties=species:S:1:pos:R:3:forces:R:3 config_type=qcd dft_energy=-9.43089591 gap_energy=-9.116276941877198 relaxed_gap_energy=-9.22992385071517 energy=-9.22992385071517 free_energy=-9.22992385071517 pbc="T T T"
Mg      13.00741867      15.98294256       9.70623246      -0.00018914      -0.00039122       0.00027036
Mg      13.67864694      13.65002084      13.83431630       0.00018045      -0.00005647       0.00067107
Mg      14.32477336      13.25417385       9.71824431      -0.00036717      -0.00001391      -0.00036746
Mg       9.64675356      11.02649400      15.12054377       0.00016780       0.00009293      -0.00033228
Mg      12.21801298      15.98681439      12.62229239      -0.00010143       0.00055174       0.00004826
Mg      11.51338391      13.52547731      10.96425383       0.00061936       0.00002081       0.00036984
Mg      10.26559305      11.14068960      12.20523874      -0.00031867      -0.00047404      -0.00052118
Mg      13.25535457      11.06265629      11.59600929      -0.00026169      -0.00039263       0.00005091
Mg      12.05759133       9.51349596      14.02150897       0.00035143      -0.00002920       0.00041708
Mg      15.15065623      15.39610453      11.74103625       0.00042821       0.00027707      -0.00009301
Mg      10.61009681      13.70867518      13.97324819      -0.00019726       0.00016056      -0.00008495
Mg      15.96849349      12.49887552      12.12218001       0.00009556      -0.00004021       0.00012516
Mg      14.73299715      10.81374580      14.30201987      -0.00052812       0.00024829      -0.00056098
Mg      12.37954181      11.88780498      15.91229330       0.00012066       0.00004629       0.00000719
14
Lattice="30.0 0.0 0.0 0.0 30.0 0.0 0.0 0.0 30.0" Properties=species:S:1:pos:R:3:forces:R:3 config_type=qcd dft_energy=-9.39809342 gap_energy=-9.11762071592073 relaxed_gap_energy=-9.167486686479322 energy=-9.167486686479322 free_energy=-9.167486686479322 pbc="T T T"
Mg      10.08598739       7.47249241       6.40709901       0.00048765       0.00011734      -0.00024484
Mg      10.16767316      10.34916997       7.62550590      -0.00013976      -0.00045763      -0.00078192
Mg       7.52579319       9.06002200       6.44147073       0.00015229      -0.00002217       0.00000883
Mg      11.88403372       7.90754890       8.75690888      -0.00011082      -0.00029749      -0.00026538
Mg      12.48735923      10.82713794       9.49193363       0.00030256       0.00045763      -0.00059032
Mg       7.34219545      10.76350864       8.88310906      -0.00054355      -0.00020998      -0.00000091
Mg       8.71878527       7.97770455       9.17029816      -0.00002420      -0.00041659      -0.00044771
Mg       6.91606674      12.55182445      11.23192393       0.00030984       0.00008025       0.00002137
Mg       8.40398177       9.78524388      11.65010147      -0.00032377       0.00030375       0.00039924
Mg      10.57796900       7.69848978      11.52777075      -0.00083590       0.00005263       0.00043204
Mg       9.85180561      12.15732183      10.10520980      -0.00008589       0.00035204       0.00034443
Mg      13.44170060       8.57970236      11.25070801       0.00050689      -0.00009627       0.00022731
Mg      11.42525548      10.53089924      12.35749445       0.00008635       0.00030589       0.00032711
Mg       9.22804100      12.39558166      13.15711383       0.00021831      -0.00016939       0.00057076
14
Lattice="30.0 0.0 0.0 0.0 30.0 0.0 0.0 0.0 30.0" Properties=species:S:1:pos:R:3:forces:R:3 config_type=qcd dft_energy=-9.38893597 gap_energy=-8.927262997091951 relaxed_gap_energy=-9.149673206325843 energy=-9.149673206325843 free_energy=-9.149673206325843 pbc="T T T"
Mg       9.44965712      11.27100219       7.51858704       0.00031905      -0.00024946       0.00002276
Mg      11.15492370       9.44262821       9.27822924      -0.00036872      -0.00043006       0.00032066
Mg       7.01236166       9.37581063       8.30876040      -0.00008957       0.00006917       0.00009513
Mg      10.82725031      12.35817605      10.09503894       0.00004734      -0.00012530       0.00009519
Mg       7.92520477      11.55857578      10.15646870      -0.00007610      -0.00032767      -0.00060711
Mg       9.62986501       6.81001941       9.20648560       0.00023241       0.00040690      -0.00042873
Mg       6.61145835       6.52692407       9.38145252      -0.00006223      -0.00017630       0.00020697
Mg       9.70139927      10.74188098      12.44904860      -0.00007297      -0.00033402      -0.00031165
Mg      12.63840053      10.47095267      11.79996598       0.00024273       0.00019778       0.00019617
Mg      10.80488417       7.93736255      11.87697989      -0.00023425       0.00006342       0.00003678
Mg       7.93157494       8.61766073      11.18810223       0.00028510       0.00037665       0.00010815
Mg       7.98780676       9.61443707       5.40890449      -0.00054708       0.00043715      -0.00014990
Mg      10.44100960       8.36547794       6.61287712       0.00071538       0.00049173       0.00012747
Mg       7.83623628       6.86112344       6.67113108      -0.00039108      -0.00039999       0.00028809
14
Lattice="30.0 0.0 0.0 0.0 30.0 0.0 0.0 0.0 30.0" Properties=species:S:1:pos:R:3:forces:R:3 config_type=qcd dft_energy=-9.38348303 gap_energy=-8.825336886420587 relaxed_gap_energy=-9.02174016678186 energy=-9.02174016678186 free_energy=-9.02174016678186 pbc="T T T"
Mg       7.85023384      11.50375842       9.59407539      -0.00041918      -0.00068491       0.00025566
Mg       9.60159121      12.31268234       7.28199873      -0.00028485       0.00020411      -0.00003537
Mg      12.73094142      10.23368784      10.78029420      -0.00025204      -0.00025208      -0.00047477
Mg      10.42606226       9.71597586       8.65156321       0.00019589      -0.00036538       0.00000444
Mg       9.67562280       6.66020463       8.54130140      -0.00029990       0.00016100       0.00010450
Mg       9.73820495      10.06518834      11.86578975       0.00029354       0.00025943       0.00024114
Mg       9.68669536      14.05142420       9.72751888       0.00014048       0.00035010      -0.00027017
Mg      12.22932961       7.39862331       9.89100893       0.00005673       0.00009107      -0.00000140
Mg       7.81587694       8.57034687       9.92416898      -0.00002311       0.00028332      -0.00065889
Mg      12.12827019      12.42519842       8.86353310       0.00035863       0.00016522       0.00014935
Mg       9.64784573       6.87269077      11.57398268       0.00038895       0.00015254       0.00019295
Mg       8.50867051      12.82232706      12.21202322      -0.00032107      -0.00007120      -0.00012254
Mg      12.01852218       8.15778533      12.81968280      -0.00015816       0.00023185       0.00023252
Mg      11.47470684      12.74268048      11.80563259       0.00032408      -0.00052505       0.00038260
15
Lattice="22.82084517595296 0.0 0.0 0.0 22.82084517595296 0.0 0.0 0.0 22.82084517595296" Properties=species:S:1:pos:R:3:forces:R:3 config_type=qcd dft_energy=-10.71134998 gap_energy=-10.265207700923144 relaxed_gap_energy=-10.385706120303325 energy=-10.385706120303325 free_energy=-10.385706120303325 pbc="T T T"
Mg      12.89252607       9.23467657       8.94468413       0.00022925      -0.00008459       0.00020907
Mg       8.37729609      11.85995770      10.11806805      -0.00054881       0.00001025      -0.00014676
Mg      14.30671211       9.27159455      11.62368747      -0.00037292      -0.00031622      -0.00060771
Mg       9.88740601       9.28196312       9.35574287      -0.00015003      -0.00045319      -0.00042950
Mg      11.33397018      11.96756201       9.37509667       0.00069347       0.00018679       0.00059993
Mg       9.80257117      14.50949544      10.50464843       0.00003118       0.00023185       0.00025469
Mg      14.33898024      11.73958354       9.85874799      -0.00070334       0.00050713       0.00021002
Mg      12.82792755      14.31915443      10.62157655      -0.00000707      -0.00081516      -0.00012877
Mg      11.66833632       7.81356809      11.32412554      -0.00004791       0.00010421      -0.00002002
Mg       9.85556412      10.25202007      12.24756010       0.00045612       0.00027047       0.00026985
Mg       8.57800709      13.08868939      12.88434647       0.00015838       0.00005288      -0.00025444
Mg      11.21717760      14.54539202      13.18321084      -0.00041561       0.00013534      -0.00036450
Mg      13.03584539      12.00945956      12.60451800       0.00076470       0.00035838       0.00030262
Mg      12.27231689       9.34213802      13.87380262      -0.00004251       0.00002434       0.00010600
Mg      10.76170200      11.92108431      14.63652308      -0.00004490      -0.00021249      -0.00000050
16
Lattice="30.0 0.0 0.0 0.0 30.0 0.0 0.0 0.0 30.0" Properties=species:S:1:pos:R:3:forces:R:3 config_type=qcd dft_energy=-11.63431653 gap_energy=-10.972773104573669 relaxed_gap_energy=-11.747370999492713 energy=-11.747370999492713 free_energy=-11.747370999492713 pbc="T T T"
Mg       8.34107598       9.04671032       7.22193006      -0.00020671      -0.00000310       0.00009642
Mg       8.83576828      11.93360679       7.69989530       0.00026964      -0.00001458       0.00012286
Mg      10.89649186       7.44585068       7.93638643       0.00044741      -0.00020822       0.00007463
Mg      11.13636054      10.30628841       6.76820394      -0.00023332       0.00031136       0.00045834
Mg      12.99642579       9.32714153       8.86335393      -0.00014696      -0.00011381       0.00002360
Mg       7.10762901      10.25064844       9.91830538       0.00043962       0.00019519      -0.00028994
Mg       8.77504958      13.03340550      10.38141369      -0.00004077       0.00014469      -0.00007103
Mg      10.06239164      10.06243465      10.06235347      -0.00046223      -0.00030781      -0.00029246
Mg      11.73811919      12.33747245       9.16721573      -0.00016298      -0.00007704      -0.00035233
Mg       8.44590211       7.27615532       9.60155102      -0.00028789       0.00028932       0.00023754
Mg      12.93604853      10.42717070      11.54475015       0.00017777      -0.00038997      -0.00020361
Mg       8.21624161      11.30551804      12.72867991       0.00028855       0.00009048      -0.00007459
Mg       8.38426439       8.37636676      12.28299778       0.00052563      -0.00031591      -0.00016917
Mg      11.01177665      12.56492600      12.27498178      -0.00041470       0.00028861       0.00016165
Mg      11.34083430       7.59878699      11.10204553       0.00021620       0.00002844      -0.00034833
Mg      10.77210241       9.70399925      13.44241775      -0.00040925       0.00008235       0.00062640
16
Lattice="30.0 0.0 0.0 0.0 30.0 0.0 0.0 0.0 30.0" Properties=species:S:1:pos:R:3:forces:R:3 config_type=qcd dft_energy=-11.59313876 gap_energy=-10.661642721670374 relaxed_gap_energy=-11.09273003867252 energy=-11.09273003867252 free_energy=-11.09273003867252 pbc="T T T"
Mg       8.56756079       8.21432559       7.71382883      -0.00034077      -0.00005966       0.00006775
Mg       9.99118381      10.88368195       6.85971923       0.00007915       0.00006323       0.00050620
Mg      13.08638381      10.76404937       7.54347021       0.00074261      -0.00016741       0.00001335
Mg       8.67255099      13.37051644       8.32485648       0.00001317      -0.00036464      -0.00010499
Mg      11.24708262      12.25700500       9.37600860      -0.00097456      -0.00008921       0.00006873
Mg       9.69286465       6.44414754       9.99091661       0.00004223      -0.00040338      -0.00039723
Mg       8.39351754      10.62058328       9.50794580      -0.00016494       0.00093467      -0.00029386
Mg      11.16317508       8.98611980       9.01919073       0.00076695      -0.00022994      -0.00020300
Mg       7.12912605       7.95667430      10.44271966      -0.00054987       0.00016053      -0.00018286
Mg      13.38433046      10.37996534      10.67986870      -0.00051065       0.00006815      -0.00001096
Mg      12.09982736      12.86101874      12.18309302       0.00007541       0.00026184       0.00020510
Mg       9.01348207      12.96000415      11.45222744       0.00002918      -0.00028939      -0.00032889
Mg      12.01814115       7.70279495      11.60063024      -0.00024773       0.00006643      -0.00040560
Mg      10.54305401      10.30182787      11.92892722       0.00046385       0.00026164       0.00028131
Mg       7.57123565      10.32664306      12.38460636       0.00024026       0.00004519       0.00012831
Mg       9.11802747       7.66218612      12.68353438       0.00033571      -0.00025803       0.00065663
17
Lattice="30.0 0.0 0.0 0.0 30.0 0.0 0.0 0.0 30.0" Properties=species:S:1:pos:R:3:forces:R:3 config_type=qcd dft_energy=-13.15450972 gap_energy=-12.832194886796335 relaxed_gap_energy=-13.025296270790832 energy=-13.025296270790832 free_energy=-13.025296270790832 pbc="T T T"
Mg      14.78408195      13.12877894      10.42379082      -0.00028347      -0.00011481       0.00053670
Mg      14.98990864      10.20289867      11.21378860      -0.00016666       0.00002716      -0.00071109
Mg      15.96351970      12.14056136      13.21886615      -0.00036340       0.00003378      -0.00061280
Mg      15.01854541      14.91686658      12.86759648      -0.00029511      -0.00019512       0.00045927
Mg      12.60343617      11.13690359       9.58116280      -0.00011115      -0.00031290      -0.00000526
Mg      12.45703595      15.56524387      14.18707246      -0.00044420      -0.00043774       0.00041049
Mg      12.41613841       8.89917220      11.84506561       0.00022352      -0.00030098       0.00047371
Mg      13.87320954      13.08072722      15.21171710      -0.00027918      -0.00005737      -0.00069426
Mg      12.62731083      15.23344619      11.02013555       0.00021653      -0.00021850       0.00037958
Mg      12.47356242      12.42782242      12.45793989      -0.00036846       0.00024626       0.00003034
Mg      10.80780404      13.15897512      15.03667953      -0.00034234       0.00009307       0.00012746
Mg      13.85485075      10.18238356      14.19378412      -0.00019538       0.00051391      -0.00061108
Mg      10.03021165      15.04499678      12.58597784       0.00053171       0.00017885      -0.00034788
Mg      10.78907869      10.26092131      14.01844437       0.00031685       0.00042538      -0.00004318
Mg      10.00163834      10.33188380      10.92785867       0.00064099      -0.00005127       0.00052160
Mg      10.44660171      13.24131100      10.17770136       0.00049422      -0.00024737       0.00019833
Mg       8.90934575      12.32216352      12.81706158       0.00042555       0.00041763      -0.00011194
18
Lattice="19.276371 0.0 0.0 0.0 19.276371 0.0 0.0 0.0 19.276371" Properties=species:S:1:pos:R:3:forces:R:3 config_type=qcd dft_energy=-14.27891777 gap_energy=-14.079291063565284 relaxed_gap_energy=-14.128597389082016 energy=-14.128597389082016 free_energy=-14.128597389082016 pbc="T T T"
Mg      12.14496665       7.48730061      11.13259073       0.00010821       0.00049884      -0.00070727