3
Lattice="16.84518893565246 0.0 0.0 0.0 16.84518893565246 0.0 0.0 0.0 16.84518893565246" Properties=species:S:1:pos:R:3:forces:R:3 config_type=qcd dft_energy=-17.98106731 gap_energy=-17.81074698975973 relaxed_gap_energy=-17.967204624566413 energy=-17.967204624566413 free_energy=-17.967204624566413 pbc="T T T"
Mn       7.93399504       7.82828042       7.19105062      -0.00017128       0.00022732       0.00029311
Mn       7.52441166       9.19547974       9.26223129       0.00049640      -0.00042444      -0.00045953
Mn       9.80937671       8.24402325       8.81450150      -0.00032512       0.00019711       0.00016642
4
Lattice="14.675756 0.0 0.0 0.0 14.675756 0.0 0.0 0.0 14.675756" Properties=species:S:1:pos:R:3:forces:R:3 config_type=qcd dft_energy=-25.38531847 gap_energy=-25.300823876764447 relaxed_gap_energy=-25.51841525845264 energy=-25.51841525845264 free_energy=-25.51841525845264 pbc="T T T"
Mn       5.88017815       6.82569604       7.56140275       0.00011475       0.00077011      -0.00040308
Mn       7.54769007       8.67031234       8.12391508      -0.00018313      -0.00080033       0.00025277
Mn       8.35022276       6.26591226       7.85096705       0.00029033       0.00078980      -0.00039569
Mn       7.57342102       7.58959137       5.81522711      -0.00022195      -0.00075958       0.00054600
5
Lattice="17.27454357037222 0.0 0.0 0.0 17.27454357037222 0.0 0.0 0.0 17.27454357037222" Properties=species:S:1:pos:R:3:forces:R:3 config_type=qcd dft_energy=-32.85087641 gap_energy=-32.725212388279076 relaxed_gap_energy=-32.998651378736724 energy=-32.998651378736724 free_energy=-32.998651378736724 pbc="T T T"
Mn      10.21433621       7.18329818       8.75339977      -0.00005164      -0.00042256       0.00013601
Mn       9.36337083       9.49832994       9.55915858      -0.00036843       0.00040362       0.00037610
Mn       7.69341648       7.65458918       9.14936848       0.00042892      -0.00015477       0.00004247
Mn       7.06021696      10.09127139       8.52105061       0.00006333       0.00021779       0.00019870
Mn       8.85501845       8.75887024       7.20338148      -0.00007217      -0.00004408      -0.00075328
5
Lattice="17.28473141215455 0.0 0.0 0.0 17.28473141215455 0.0 0.0 0.0 17.28473141215455" Properties=species:S:1:pos:R:3:forces:R:3 config_type=qcd dft_energy=-32.80239937 gap_energy=-32.96385058249476 relaxed_gap_energy=-32.99865127849009 energy=-32.99865127849009 free_energy=-32.99865127849009 pbc="T T T"
Mn       8.54186243      10.18998089      10.12868295      -0.00005435       0.00079256       0.00030251
Mn       9.68192983       9.38242849       7.94207960       0.00002318      -0.00078853      -0.00003713
Mn       9.00281568       7.67790878       9.67113717       0.00004215      -0.00020429      -0.00025301
Mn       7.24230793       8.86707900       8.31375001       0.00007804      -0.00066682      -0.00014292
Mn       8.74291266       7.09443138       7.15617880      -0.00008903       0.00086708       0.00013055
6
Lattice="30.0 0.0 0.0 0.0 30.0 0.0 0.0 0.0 30.0" Properties=species:S:1:pos:R:3:forces:R:3 config_type=qcd dft_energy=-40.40414546 gap_energy=-40.121277663698585 relaxed_gap_energy=-40.27867294819669 energy=-40.27867294819669 free_energy=-40.27867294819669 pbc="T T T"
Mn       7.22205183       7.25570819       6.54189786      -0.00067017       0.00013414       0.00063921
Mn       6.72484040       5.28316875       4.98152266       0.00031192      -0.00016259      -0.00015851
Mn       5.01508496       5.96981887       6.76442776       0.00043707      -0.00015019      -0.00019858
Mn       4.52021692       6.39044958       4.28418824      -0.00074458       0.00020901       0.00042042
Mn       5.01708102       8.36302509       5.84490022       0.00042322      -0.00010237      -0.00038956
Mn       6.72684509       7.67649250       4.06193113       0.00024254       0.00007200      -0.00031298
6
Lattice="15.620848 0.0 0.0 0.0 15.620848 0.0 0.0 0.0 15.620848" Properties=species:S:1:pos:R:3:forces:R:3 config_type=qcd dft_energy=-40.39811212 gap_energy=-39.9700807007059 relaxed_gap_energy=-40.27867296472806 energy=-40.27867296472806 free_energy=-40.27867296472806 pbc="T T T"
Mn       6.45723437       6.92549288       8.63022936      -0.00050770      -0.00007923       0.00024751
Mn       9.16366704       8.69536833       6.99062705      -0.00008029       0.00008473      -0.00019161
Mn       6.88622533       7.77928075       6.25134036       0.00000003       0.00008215      -0.00037279
Mn       8.58576078       6.22829404       7.38246606       0.00011886      -0.00022547      -0.00042796
Mn       7.03504055       9.39261149       8.23840044       0.00035175      -0.00038354       0.00010278
Mn       8.73461594       7.84149652       9.36948072       0.00011735       0.00052136       0.00064207
7
Lattice="17.62958967850163 0.0 0.0 0.0 17.62958967850163 0.0 0.0 0.0 17.62958967850163" Properties=species:S:1:pos:R:3:forces:R:3 config_type=qcd dft_energy=-47.94531501 gap_energy=-48.11353384330841 relaxed_gap_energy=-48.14926555884393 energy=-48.14926555884393 free_energy=-48.14926555884393 pbc="T T T"
Mn       9.77378890       9.64252635       6.93469020      -0.00005782      -0.00012856       0.00005853
Mn       7.60941651      10.61528256       8.14789488      -0.00004988       0.00009057      -0.00008108
Mn       9.49463243       9.51208811       9.46851816      -0.00020018      -0.00053623      -0.00032940
Mn       7.11084116       9.09986403      10.28270872      -0.00006114      -0.00001052       0.00011840
Mn      10.61274610       7.52571692       8.31962873       0.00008860       0.00014387       0.00004301
Mn       8.13510403       8.11765377       8.16124224       0.00023862       0.00046862       0.00005670
Mn       8.96703473       7.19043213      10.38888094       0.00004180      -0.00002774       0.00013385
8
Lattice="18.30968115661667 0.0 0.0 0.0 18.30968115661667 0.0 0.0 0.0 18.30968115661667" Properties=species:S:1:pos:R:3:forces:R:3 config_type=qcd dft_energy=-55.64037054 gap_energy=-55.120405306145045 relaxed_gap_energy=-55.759285422667304 energy=-55.759285422667304 free_energy=-55.759285422667304 pbc="T T T"
Mn       7.20172862      10.19012165       9.31257360      -0.00014736       0.00042837       0.00009588
Mn      10.13393886       6.99784488       8.36861932       0.00069127      -0.00015880       0.00013014
Mn       7.58519271       7.73228990       7.83542171       0.00045316       0.00019540       0.00041351
Mn       9.67856305      11.13808797       9.37664727      -0.00003364      -0.00060113       0.00043905
Mn      11.14025363       9.05849517      10.13552051       0.00014923      -0.00036060       0.00018686
Mn       8.89152623       9.93034431      11.48413592       0.00006730       0.00047223      -0.00054592
Mn       8.99512006       8.78314346       9.40887692      -0.00060242      -0.00032891      -0.00053927
Mn       9.61240146       9.40839730       7.31692936      -0.00057754       0.00035345      -0.00018025
9
Lattice="18.72121006909518 0.0 0.0 0.0 18.72121006909518 0.0 0.0 0.0 18.72121006909518" Properties=species:S:1:pos:R:3:forces:R:3 config_type=qcd dft_energy=-63.26102796 gap_energy=-62.665475741742654 relaxed_gap_energy=-63.64285087342017 energy=-63.64285087342017 free_energy=-63.64285087342017 pbc="T T T"
Mn      10.43677858      11.06067456       9.61692443       0.00002576      -0.00013230       0.00032713
Mn      11.08539519       8.44150790       9.90350294       0.00000315       0.00060048       0.00007816
Mn       8.95816107       9.25894641       9.34309275      -0.00042179       0.00002001       0.00031535
Mn       8.13346466      10.45624835       7.55671452      -0.00034112       0.00025991      -0.00027497
Mn       8.86975649       7.48073267       7.88214003       0.00047873      -0.00025570       0.00028576
Mn       8.84855010       7.23287610      10.60320669      -0.00061052       0.00031470       0.00001276
Mn       7.86219749      11.21456820      10.16760022       0.00045532      -0.00041371       0.00007937
Mn       9.48451089       9.64395163      11.66895079       0.00025905      -0.00033723      -0.00037924
Mn      10.56663084       9.45593949       7.50331293       0.00015144      -0.00005615      -0.00044432
10
Lattice="19.0686517763718 0.0 0.0 0.0 19.0686517763718 0.0 0.0 0.0 19.0686517763718" Properties=species:S:1:pos:R:3:forces:R:3 config_type=qcd dft_energy=-71.21912221 gap_energy=-70.1137505657501 relaxed_gap_energy=-70.40201860646059 energy=-70.40201860646059 free_energy=-70.40201860646059 pbc="T T T"
Mn       9.59352056       6.97426975       7.74833541      -0.00003857       0.00008963       0.00008742
Mn      10.54590165      10.00151620      10.53510437       0.00013525      -0.00002392      -0.00002135
Mn       8.99597798       8.16664927       9.83904105      -0.00028545       0.00012388       0.00065626
Mn      10.53170092      11.85494700       8.82876546      -0.00010289      -0.00060280       0.00070090
Mn       8.48260355       9.64862777      11.93531568      -0.00024309      -0.00017280      -0.00055641
Mn       8.48715886      10.60368593       9.60432864      -0.00012185       0.00000723      -0.00002480
Mn      11.46618790       7.76014916       9.54808207       0.00006024       0.00019025      -0.00066826
Mn       7.65825818       8.87495933       7.82364389       0.00023017      -0.00032107       0.00006296
Mn       9.47734124      12.09616416      11.31756981       0.00020460       0.00074727       0.00007712
Mn      10.10460804       9.36229030       8.16307252       0.00016159      -0.00003767      -0.00031383
11
Lattice="19.44133625866086 0.0 0.0 0.0 19.44133625866086 0.0 0.0 0.0 19.44133625866086" Properties=species:S:1:pos:R:3:forces:R:3 config_type=qcd dft_energy=-78.89240884 gap_energy=-78.64112051545784 relaxed_gap_energy=-79.1497760434274 energy=-79.1497760434274 free_energy=-79.1497760434274 pbc="T T T"
Mn       8.35807548      11.39403255       9.51139869      -0.00021078      -0.00013780       0.00030420
Mn       9.14187764      10.87955726       7.08902613       0.00027222       0.00044487      -0.00036131
Mn       8.08167162       8.98106926       8.50953810      -0.00056215      -0.00028836       0.00021564
Mn       9.81772310       9.52639941      10.16174626      -0.00044950       0.00002582       0.00079814
Mn       7.69417563       9.37761095      11.10621047       0.00054461      -0.00005138      -0.00024300
Mn      10.64242314       8.93078426       7.92428780      -0.00007668      -0.00052918      -0.00024933
Mn      10.91868370      11.34350496       8.92618645       0.00049731       0.00064027      -0.00000976
Mn      10.31174960       8.53644750      12.40934926      -0.00015534       0.00044113      -0.00076714
Mn      10.15347378      11.42532907      11.46740006      -0.00024226      -0.00028868      -0.00004968
Mn       9.67415741       7.24246428       9.73046112      -0.00014328      -0.00030132       0.00020665
Mn      12.13333834       9.29014989      10.09174509       0.00052587       0.00004464       0.00015560
12
Lattice="19.16569188044436 0.0 0.0 0.0 19.16569188044436 0.0 0.0 0.0 19.16569188044436" Properties=species:S:1:pos:R:3:forces:R:3 config_type=qcd dft_energy=-86.92499883 gap_energy=-86.45480010778141 relaxed_gap_energy=-86.73709111626547 energy=-86.73709111626547 free_energy=-86.73709111626547 pbc="T T T"
Mn      11.53583472       9.29349590       8.11660250      -0.00050257       0.00055523       0.00040377
Mn       8.70649303       8.40728126       7.09540382       0.00049993      -0.00007223       0.00076167
Mn       9.35592479      11.41439384       7.77202310      -0.00057631      -0.00026565      -0.00013030
Mn       7.18653091      10.14668419       8.36507088      -0.00022140       0.00043599       0.00043804
Mn      10.35119440       7.24817960       9.50076487      -0.00051751       0.00060401       0.00013750
Mn       9.35926553       9.39217335       9.10988016       0.00050084      -0.00044081      -0.00024569
Mn       7.46624613       8.15176577       9.97975439      -0.00021019       0.00044872      -0.00049478
Mn       8.35693752      11.01257652      10.64620507       0.00025601      -0.00070622      -0.00057717
Mn      11.81620140       9.06477470      10.72874366       0.00061189      -0.00047587       0.00009628
Mn       9.48076717       8.82189957      11.46055702       0.00046185       0.00026832      -0.00022151
Mn      10.83114227      11.15331388       9.88269392       0.00015505      -0.00027381       0.00022488
Mn      10.54761341      10.88761270      12.33645189      -0.00045758      -0.00007767      -0.00039270
12
Lattice="19.98605823257063 0.0 0.0 0.0 19.98605823257063 0.0 0.0 0.0 19.98605823257063" Properties=species:S:1:pos:R:3:forces:R:3 config_type=qcd dft_energy=-86.87553659 gap_energy=-86.72142593021718 relaxed_gap_energy=-86.91164885129108 energy=-86.91164885129108 free_energy=-86.91164885129108 pbc="T T T"
Mn      10.79570753      10.64835006       7.50985478       0.00015325      -0.00014416       0.00024363
Mn       8.60321805       9.66217125       8.34149870      -0.00015868       0.00024900       0.00010632
Mn      11.66112689      11.83779681       9.71317665       0.00043216       0.00041852       0.00022961
Mn       9.13958101      12.03422141       9.04103734      -0.00009525      -0.00019722      -0.00007960
Mn      10.58149231       8.09833002       8.31129759      -0.00014675       0.00015740       0.00013566
Mn       8.67385122       7.89152065      10.16196838      -0.00020026      -0.00001847       0.00002500
Mn      11.24246376       7.88923993      10.87519217      -0.00035742      -0.00052763       0.00017706
Mn       9.78303766      11.83166412      11.53654628      -0.00036832      -0.00014218      -0.00046515
Mn      10.24137377       9.96313518       9.92639297       0.00025915       0.00067370      -0.00046342
Mn       7.72301345      10.40405860      10.61160917       0.00078278      -0.00035997       0.00019539
Mn      11.91529468      10.29416018      11.85121732       0.00019942       0.00054884      -0.00057459
Mn       9.55618908       9.36170119      12.03655805      -0.00050008      -0.00065783       0.00047011
13
Lattice="30.0 0.0 0.0 0.0 30.0 0.0 0.0 0.0 30.0" Properties=species:S:1:pos:R:3:forces:R:3 config_type=qcd dft_energy=-94.88301652 gap_energy=-94.84555742142467 relaxed_gap_energy=-94.96618165036854 energy=-94.96618165036854 free_energy=-94.96618165036854 pbc="T T T"
Mn       9.34073323       9.16313006       6.52763940      -0.00020536      -0.00071444      -0.00065508
Mn       9.90980729       7.12294288       9.78927931      -0.00062423      -0.00035047       0.00053408
Mn       6.18994866       8.57914000       9.03001477       0.00039361       0.00027498       0.00003944
Mn       7.21882735      10.38983314       7.34513275       0.00013429       0.00018767      -0.00010680
Mn       8.61318964       8.62659211       8.63735445      -0.00026597      -0.00028183      -0.00033765
Mn       7.75985557      10.36371650       9.87167603      -0.00022533      -0.00032403       0.00058132
Mn       7.25318161       7.77132696       6.77876016       0.00054511       0.00031159       0.00033448
Mn      11.16227402       8.72388468       8.25380291       0.00039072       0.00007026      -0.00071762
Mn       7.63641031       6.39871250       8.97480209       0.00010168       0.00039660       0.00001726
Mn       9.68584285      10.94933311       8.31051665      -0.00006095       0.00060742      -0.00045114
Mn      10.07657934       9.54834496      10.55043233      -0.00045523       0.00025740       0.00076157
Mn       7.86614713       8.06969648      11.05658467       0.00014752      -0.00044786       0.00026725
Mn       9.66452643       6.70384833       7.25137193       0.00012414       0.00001272      -0.00026711
14
Lattice="19.84527991902812 0.0 0.0 0.0 19.84527991902812 0.0 0.0 0.0 19.84527991902812" Properties=species:S:1:pos:R:3:forces:R:3 config_type=qcd dft_energy=-103.01279509 gap_energy=-102.24343650984129 relaxed_gap_energy=-102.55843425856558 energy=-102.55843425856558 free_energy=-102.55843425856558 pbc="T T T"
Mn      12.10922997       9.94651220       7.86734030       0.00020240      -0.00005562       0.00012547
Mn      10.54921671       7.69729890       8.05348869      -0.00009582       0.00000624       0.00005973
Mn      11.36182433       7.39346328      10.65634395       0.00001655       0.00032226      -0.00003832
Mn       9.36072564      10.11103161       7.86780897      -0.00008301       0.00000839       0.00015365
Mn      12.49104824      10.30438843      10.96039878       0.00002056      -0.00038852      -0.00007950
Mn      10.89645837       9.36987456       9.67763246      -0.00020403       0.00016942       0.00033228
Mn      11.01754239      11.89685498       9.31450549      -0.00038867      -0.00002229      -0.00007161
Mn       8.77779608       8.12030005      10.04257357       0.00017261      -0.00010127      -0.00015375
Mn       9.93700640      11.98325317      11.81290949      -0.00030273       0.00005012      -0.00028996
Mn       9.05785123      10.57850687      10.29125042       0.00068484       0.00021518       0.00007848
Mn      10.25713848       9.30012267      12.15126080       0.00015491      -0.00029791      -0.00027504
Mn       8.40754604      12.38001500       9.10287113       0.00005355      -0.00007465       0.00014488
Mn       7.03355429      10.00845657       9.22684167      -0.00010869      -0.00003060      -0.00018748
Mn       7.66002125       9.82688117      11.89173371      -0.00012246       0.00019925       0.00020117
15
Lattice="20.08203964806728 0.0 0.0 0.0 20.08203964806728 0.0 0.0 0.0 20.08203964806728" Properties=species:S:1:pos:R:3:forces:R:3 config_type=qcd dft_energy=-110.95189715 gap_energy=-109.83064194479114 relaxed_gap_energy=-110.22968600402983 energy=-110.22968600402983 free_energy=-110.22968600402983 pbc="T T T"
Mn      10.79617017       7.69531841       9.91165319       0.00005539       0.00017551      -0.00006030
Mn      11.66370320      10.14501946       9.24208571       0.00034913       0.00033829       0.00078511
Mn      11.52242477      11.91381597      10.93952703      -0.00039184      -0.00001780      -0.00020051
Mn      11.74515253       8.37030845       7.51794988       0.00006589      -0.00043338      -0.00019984
Mn      11.98510396       9.36202240      11.54704613      -0.00027847      -0.00016158      -0.00004932
Mn       9.98022725      12.19580710       8.83996009       0.00008620      -0.00043968       0.00012401
Mn      11.28586394      10.90120492       6.91502901      -0.00001607       0.00032130      -0.00029296
Mn       8.87673693      12.13429373      11.17868910       0.00024440      -0.00027428      -0.00018544
Mn       9.73478550       9.57492377       8.31709621      -0.00009726       0.00013646       0.00034477
Mn       9.55359071       8.40175385      12.06763956       0.00010896       0.00014932      -0.00029442
Mn       9.75559347      10.11952491      10.58819131      -0.00085499       0.00005505       0.00004843
Mn      10.14637915      10.75287707      12.94999926      -0.00009988      -0.00011186      -0.00046026
Mn       8.24161155       8.25572224       9.75191699       0.00007474       0.00001927       0.00032024
Mn       7.77896564      10.80747364       9.14417753       0.00013511       0.00014748       0.00034652
Mn       7.54898862       9.98523142      11.70433635       0.00061871       0.00009590      -0.00022601
16
Lattice="19.81959006926542 0.0 0.0 0.0 19.81959006926542 0.0 0.0 0.0 19.81959006926542" Properties=species:S:1:pos:R:3:forces:R:3 config_type=qcd dft_energy=-118.61655572 gap_energy=-118.07930626064368 relaxed_gap_energy=-118.52432666262692 energy=-118.52432666262692 free_energy=-118.52432666262692 pbc="T T T"
Mn      11.75659110       7.70648247       9.29656402       0.00006735       0.00030094       0.00031821
Mn      12.44380294      10.39529644       7.97058930      -0.00005867      -0.00009637       0.00034079
Mn      10.19468509       8.27849553       7.13956400       0.00033148       0.00031639       0.00009903
Mn      12.37009955       9.96739437      10.55806622      -0.00031992       0.00013447       0.00004826
Mn       9.00871912       7.84442294       9.87302005       0.00036619      -0.00005673      -0.00031634
Mn      10.84846441       8.32679938      11.66715467       0.00022991      -0.00020836       0.00008307
Mn      10.47495198       9.68009968       8.96608954       0.00004142       0.00043823      -0.00008496
Mn       9.96741443      11.33921254       7.34195367      -0.00019316      -0.00048448       0.00009288
Mn       8.13437276       9.57420791       8.11818553      -0.00068480      -0.00002686      -0.00019404
Mn      10.88434162      10.84675564      12.51998678      -0.00005887      -0.00050595      -0.00034442
Mn       9.34482664      10.13934393      10.85351513      -0.00021390       0.00070592       0.00023449
Mn       7.03083332       9.74675626      10.48053564       0.00015035       0.00030129       0.00043074
Mn       8.48426876       8.92662585      12.63336563       0.00011958      -0.00006928      -0.00024966
Mn      10.81071642      11.97523412       9.94670876      -0.00021683      -0.00084490      -0.00004223
Mn       8.28664109      11.77114368       9.29582204       0.00018856       0.00009086      -0.00000080
Mn       8.51599131      12.03844979      11.89559957       0.00025130       0.00000483      -0.00041502
17
Lattice="19.8769017949352 0.0 0.0 0.0 19.8769017949352 0.0 0.0 0.0 19.8769017949352" Properties=species:S:1:pos:R:3:forces:R:3 config_type=qcd dft_energy=-126.64683215 gap_energy=-125.43099105359954 relaxed_gap_energy=-126.15187799650218 energy=-126.15187799650218 free_energy=-126.15187799650218 pbc="T T T"
Mn      12.47035782       8.50033486       8.32914081      -0.00033346       0.00062125       0.00020867
Mn      10.46640974       8.94833057       9.35107059      -0.00049183       0.00051903       0.00012257
Mn      10.32672907       9.52516032       6.96161916       0.00017064      -0.00019834      -0.00035439
Mn       9.57024138      12.06434902       7.79328532      -0.00025432      -0.00003974      -0.00002464
Mn       8.25627956       9.83544480       8.66443896      -0.00024832       0.00065386      -0.00007152
Mn       9.82880144      11.10036374      10.04590312      -0.00033233      -0.00048380       0.00012270
Mn       8.10956572      12.60787709      10.01517214      -0.00026363      -0.00004593      -0.00028604
Mn       8.42352907       9.00295394      13.28465478       0.00015080       0.00017051       0.00027199
Mn       7.57689929      10.26037498      11.19497836      -0.00009674      -0.00032600       0.00013874
Mn      11.18444462       7.32268518      10.91785567       0.00046008      -0.00036820      -0.00010851
Mn       9.89862136       9.27732638      11.58284772      -0.00034540       0.00024897       0.00072370
Mn       8.43408999       7.76076965      10.64241643      -0.00008241       0.00000149      -0.00028447
Mn      11.80150511      11.01324812       8.41726687       0.00017208      -0.00051299       0.00015464
Mn      12.09132413      10.23536038      10.88280223       0.00013927      -0.00022200      -0.00001713
Mn       9.56155628       7.23753238       8.18342923       0.00047184       0.00012840       0.00002829
Mn      11.28117223      12.84447495      10.21418535       0.00065033       0.00005640       0.00007337
Mn       9.67213842      11.41707890      12.47259854       0.00023341      -0.00020291      -0.00069797
18
Lattice="19.89848962799091 0.0 0.0 0.0 19.89848962799091 0.0 0.0 0.0 19.89848962799091" Properties=species:S:1:pos:R:3:forces:R:3 config_type=qcd dft_energy=-134.5321925 gap_energy=-133.2784198196399 relaxed_gap_energy=-134.12823404594883 energy=-134.12823404594883 free_energy=-134.12823404594883 pbc="T T T"
Mn       8.79070390      10.35853752       7.54380875      -0.00056773       0.00039963      -0.00012283
Mn      11.17474177       9.34019467       7.21396970      -0.00010408      -0.00011268      -0.00015930
Mn      12.29255525       7.52313067       8.81716506       0.00005746      -0.00055577      -0.00025044
Mn       7.70142433       8.43615404       9.24959066      -0.00011685       0.00003952      -0.00018858
Mn      11.17383307      11.92811851       7.61037012       0.00058525       0.00027835      -0.00004831
Mn       7.46859528      10.94029113       9.67272307      -0.00022202      -0.00007467       0.00015439
Mn       9.03542169      12.91917259       8.94849028      -0.00051045       0.00035591      -0.00021222
Mn      10.20043005       8.52425922       9.15934597       0.00040410      -0.00022146      -0.00003443
Mn      12.42227911      10.05403578       9.41643231       0.00073349       0.00003959      -0.00017071
Mn      11.38165863      12.72692421      10.21574860       0.00014268       0.00015256      -0.00016010
Mn       9.27023777       9.33855544      11.01286583      -0.00015082       0.00036590       0.00032949
Mn      10.14780189      10.91394680       9.45429725      -0.00012346       0.00010865       0.00014370
Mn      11.48576806       8.07892525      11.27825028       0.00013002       0.00038040       0.00058554
Mn       7.08261486       9.41447470      11.73679734      -0.00012730      -0.00012757       0.00003556
Mn       9.00869581       7.03283770      11.13238108      -0.00002046      -0.00097406       0.00006763
Mn      11.52526740      10.60612566      11.80476815      -0.00003240      -0.00025204      -0.00002310
Mn       9.11760313      11.69767301      11.57875828       0.00026683      -0.00006793       0.00015800
Mn       9.80677466       9.25304973      13.24064390      -0.00034426       0.00026567      -0.00010430
19
Lattice="19.99760322575217 0.0 0.0 0.0 19.99760322575217 0.0 0.0 0.0 19.99760322575217" Properties=species:S:1:pos:R:3:forces:R:3 config_type=qcd dft_energy=-142.91355676 gap_energy=-141.80537432046492 relaxed_gap_energy=-142.44117582787112 energy=-142.44117582787112 free_energy=-142.44117582787112 pbc="T T T"
Mn      13.29768397      11.70524533       9.67814386       0.00035756       0.00039554      -0.00021275
Mn      11.18047370      12.25216793       8.14512127      -0.00045591       0.00013659      -0.00032635
Mn      12.42133373       9.82681261       7.97295757      -0.00009220      -0.00009040       0.00022286
Mn      11.94455594      10.85509697      12.43149571      -0.00018149       0.00055049       0.00054613
Mn      12.92686781       8.75338892      10.44705319      -0.00027007      -0.00002588       0.00026314
Mn       9.96087487      10.06515004       8.10521049       0.00010064      -0.00029058      -0.00012869
Mn      10.73992325      12.99812788      10.72915340       0.00028135       0.00072376       0.00004554
Mn       9.14213732      11.62746134       9.54533462      -0.00035777      -0.00003529      -0.00023583
Mn      11.24428671      10.58379079      10.08495057      -0.00027834      -0.00034543       0.00031009
Mn       7.12864365      11.01846623      10.85019618       0.00019551       0.00000601       0.00002436
Mn       9.53974963      10.95092556      11.72871934       0.00040986      -0.00049568       0.00010620
Mn       7.43136703      10.37123551       8.21553283       0.00036443      -0.00008124       0.00012039
Mn       8.81660903       9.29397874      10.07895024      -0.00053872       0.00037381      -0.00009711
Mn      10.63369989       8.79605632      11.66506678       0.00003918      -0.00018314      -0.00023495
Mn       8.73058556       7.99816186       7.88525683      -0.00023060       0.00014713      -0.00061708
Mn      10.85441151       8.29540676       9.31029965      -0.00012072      -0.00023489       0.00014245
Mn       8.19709007       9.10960664      12.50665082       0.00040060      -0.00007417      -0.00003419
Mn       6.56470509       8.54825101       9.96420093       0.00072230       0.00041392       0.00009319
Mn       9.22223190       6.92790022      10.63293638      -0.00034560      -0.00089057       0.00001261
20
Lattice="19.93140154959753 0.0 0.0 0.0 19.93140154959753 0.0 0.0 0.0 19.93140154959753" Properties=species:S:1:pos:R:3:forces:R:3 config_type=qcd dft_energy=-150.95899835 gap_energy=-149.33986531009054 relaxed_gap_energy=-150.042792416106 energy=-150.042792416106 free_energy=-150.042792416106 pbc="T T T"
Mn      11.07796356       8.58755522       6.93445126       0.00031904       0.00030202       0.00031665
Mn      12.73259270       8.47046164       9.62988609       0.00025207       0.00001715       0.00001828
Mn       8.47088162       8.72057375       7.78682932       0.00017705       0.00028357      -0.00030817
Mn       7.26356630      10.59817409       8.97132249      -0.00036854       0.00024323       0.00059316
Mn      10.63023220       9.43594617       8.96095385       0.00071140      -0.00025465       0.00022485
Mn      12.34740565      10.80799556       7.96301722      -0.00007289      -0.00013328      -0.00005741
Mn       9.68711062      11.22327215       7.65687500      -0.00001537       0.00025916       0.00024827
Mn      11.12855771      12.91838006       9.31516734      -0.00007761      -0.00026889      -0.00035309
Mn       6.82299807       8.10638586       9.93102150       0.00009814       0.00037473       0.00019470
Mn       8.40214508      12.90411812       9.40084839      -0.00006113      -0.00022983      -0.00017989
Mn       8.76401236       9.07194950      10.36842744      -0.00081219      -0.00037323      -0.00008366
Mn       9.62667814      11.21268447      10.26953099      -0.00058818      -0.00043566       0.00006729
Mn       9.85813935       7.10311568       9.45631035       0.00004161       0.00018389      -0.00043451
Mn      12.00063816      10.87063898      10.62870159       0.00007380      -0.00050559      -0.00007760