3
Lattice="17.63011278792038 0.0 0.0 0.0 17.63011278792038 0.0 0.0 0.0 17.63011278792038" Properties=species:S:1:pos:R:3:forces:R:3 config_type=qcd dft_energy=-21.12802307 gap_energy=-22.33072926723982 relaxed_gap_energy=-22.375406544852904 energy=-22.375406544852904 free_energy=-22.375406544852904 pbc="T T T"
Mo       9.12212855       9.80617829       9.41957701      -0.00026647      -0.00053661      -0.00030760
Mo       9.84399196       8.41377379       8.34370854      -0.00021016       0.00017792       0.00016064
Mo       7.47904868       8.22521711       8.68188363       0.00047664       0.00035868       0.00014696
4
Lattice="30.0 0.0 0.0 0.0 30.0 0.0 0.0 0.0 30.0" Properties=species:S:1:pos:R:3:forces:R:3 config_type=qcd dft_energy=-31.48968908 gap_energy=-32.24254977744741 relaxed_gap_energy=-33.431743253271605 energy=-33.431743253271605 free_energy=-33.431743253271605 pbc="T T T"
Mo      10.54015789      10.12891410       8.34226620       0.00010196      -0.00000283       0.00000429
Mo       8.01643579       9.63056516       9.78152521      -0.00032166       0.00003607       0.00005894
Mo      10.24398285       8.43434812       8.26621728       0.00006648      -0.00002215      -0.00000625
Mo       9.29613584       9.35663951      10.90061906       0.00015322      -0.00001109      -0.00005698
5
Lattice="19.60851094318791 0.0 0.0 0.0 19.60851094318791 0.0 0.0 0.0 19.60851094318791" Properties=species:S:1:pos:R:3:forces:R:3 config_type=qcd dft_energy=-38.77420721 gap_energy=-40.8721323006378 relaxed_gap_energy=-41.76036967284897 energy=-41.76036967284897 free_energy=-41.76036967284897 pbc="T T T"
Mo      10.79871788       8.57000447       9.24433874       0.00007626       0.00005962      -0.00005092
Mo       8.49324409       8.97065780      10.44620189      -0.00024497      -0.00022794       0.00014071
Mo      10.73488376      10.36758371       8.52270303       0.00004969      -0.00000122      -0.00001152
Mo       8.42939422      10.76822962       9.72456793       0.00001710       0.00012939      -0.00007995
Mo      10.56503741      10.34480175      11.08346576       0.00010191       0.00004015       0.00000168
5
Lattice="30.0 0.0 0.0 0.0 30.0 0.0 0.0 0.0 30.0" Properties=species:S:1:pos:R:3:forces:R:3 config_type=qcd dft_energy=-38.7471473 gap_energy=-40.553283808487365 relaxed_gap_energy=-41.055585470574115 energy=-41.055585470574115 free_energy=-41.055585470574115 pbc="T T T"
Mo       7.66281630       8.99982000       6.71453146      -0.00011142       0.00059432      -0.00022326
Mo       8.89243927       8.74169651       8.34041863      -0.00018475      -0.00015669       0.00003759
Mo       6.51811377       7.93196458       8.79351053       0.00051874      -0.00007610      -0.00008781
Mo       6.70408287       6.68267919       7.17238779      -0.00017304      -0.00026641      -0.00005786
Mo       9.00507028       6.42636223       7.76167409      -0.00004953      -0.00009513       0.00033135
6
Lattice="30.0 0.0 0.0 0.0 30.0 0.0 0.0 0.0 30.0" Properties=species:S:1:pos:R:3:forces:R:3 config_type=qcd dft_energy=-48.89359834 gap_energy=-49.44158969298456 relaxed_gap_energy=-50.89065475953166 energy=-50.89065475953166 free_energy=-50.89065475953166 pbc="T T T"
Mo       8.93905632       9.19823053       8.58716479      -0.00054672       0.00026654      -0.00036369
Mo      10.18731168       7.04659484       6.96619412       0.00022808      -0.00042501      -0.00012901
Mo       8.83555161       6.34941040       7.75773015      -0.00015497       0.00035370      -0.00011264
Mo       8.07516263       9.13135531       7.05209755       0.00010268      -0.00012220       0.00084223
Mo       6.47252670       7.60662273       9.03229826       0.00026555      -0.00051132      -0.00005970
Mo       6.03596385       9.25550295       9.20657856       0.00010538       0.00043828      -0.00017720
7
Lattice="30.0 0.0 0.0 0.0 30.0 0.0 0.0 0.0 30.0" Properties=species:S:1:pos:R:3:forces:R:3 config_type=qcd dft_energy=-56.9540081 gap_energy=-58.222900647359324 relaxed_gap_energy=-60.498979554537826 energy=-60.498979554537826 free_energy=-60.498979554537826 pbc="T T T"
Mo      10.01676334       7.29210394       8.86053723       0.00003469      -0.00043398      -0.00005202
Mo       7.13797346       8.38370758       9.26234908      -0.00016250      -0.00005178      -0.00008808
Mo      11.41972810       8.61666144       9.00021895       0.00029026       0.00006559      -0.00005350
Mo       9.21618179       8.97934676      10.53725494       0.00005115       0.00007981       0.00015579
Mo       8.79855330       9.06187994       7.32091700      -0.00006305      -0.00010500      -0.00005520
Mo       7.02585813      10.28276023       9.61346904       0.00007274       0.00015537      -0.00008511
Mo       9.50116374      10.46490955       8.54302415      -0.00022329       0.00028999       0.00017811
7
Lattice="17.51716372693428 0.0 0.0 0.0 17.51716372693428 0.0 0.0 0.0 17.51716372693428" Properties=species:S:1:pos:R:3:forces:R:3 config_type=qcd dft_energy=-56.94500712 gap_energy=-58.293155030527274 relaxed_gap_energy=-60.49897954555952 energy=-60.49897954555952 free_energy=-60.49897954555952 pbc="T T T"
Mo       9.97429228      10.14602423       7.89778703      -0.00015025      -0.00009438      -0.00012785
Mo       7.40384493       9.37345162       7.57818697       0.00038422       0.00027486       0.00022544
Mo      10.36584813       8.28941524       8.27460737      -0.00005352       0.00026702      -0.00011398
Mo       8.47339465       8.92403694       9.79610662      -0.00001886       0.00002662       0.00019292
Mo       8.25423200       7.76565564       6.77350700       0.00006996      -0.00024547      -0.00026863
Mo       7.91500978       6.57552854       9.10911968       0.00003802      -0.00024214       0.00014358
Mo       6.23360886       7.53012342       9.17151695      -0.00026958       0.00001349      -0.00005148
7
Lattice="18.7229041188114 0.0 0.0 0.0 18.7229041188114 0.0 0.0 0.0 18.7229041188114" Properties=species:S:1:pos:R:3:forces:R:3 config_type=qcd dft_energy=-56.92223443 gap_energy=-59.04402680719838 relaxed_gap_energy=-60.475773918496174 energy=-60.475773918496174 free_energy=-60.475773918496174 pbc="T T T"
Mo       8.52058482      11.65031215       8.88005851       0.00013270      -0.00054307       0.00063745
Mo       8.51639733       9.07309458       8.14217692      -0.00008806      -0.00040351       0.00002872
Mo       8.25155392       7.26523064      10.10383313       0.00045319      -0.00026648      -0.00015417
Mo       9.22146039       9.70687604      10.56878964      -0.00031629       0.00063472      -0.00045162
Mo      10.46182458       9.02086437       8.38295236      -0.00022721       0.00042146       0.00012986
Mo      10.14469574       7.21421281      10.33794650      -0.00048885       0.00014909       0.00002160
Mo      10.41364763      11.59957381       9.11440735       0.00053452       0.00000778      -0.00021184
8
Lattice="30.0 0.0 0.0 0.0 30.0 0.0 0.0 0.0 30.0" Properties=species:S:1:pos:R:3:forces:R:3 config_type=qcd dft_energy=-66.86292248 gap_energy=-68.0326296483777 relaxed_gap_energy=-69.8724147629359 energy=-69.8724147629359 free_energy=-69.8724147629359 pbc="T T T"
Mo      11.28306275       7.64973788      10.91174331      -0.00002644      -0.00022364       0.00008506
Mo       9.30914499      11.82204197       7.93609659      -0.00011079      -0.00006242      -0.00011162
Mo       9.75985333       9.21191652       8.62224677      -0.00003351       0.00005367       0.00008055
Mo       9.41219202       7.65306905      10.81940204       0.00008846       0.00003787       0.00004216
Mo       9.88359701      10.20895021      11.67038418      -0.00002297      -0.00009873       0.00007770
Mo      11.36367761       9.98317307       9.48518421       0.00012745       0.00009300      -0.00014715
Mo      10.09416379      12.38393169       9.54128336       0.00006383       0.00014513       0.00009948
Mo       8.34963859      10.49080695      10.46412275      -0.00008604       0.00005512      -0.00012617
9
Lattice="30.0 0.0 0.0 0.0 30.0 0.0 0.0 0.0 30.0" Properties=species:S:1:pos:R:3:forces:R:3 config_type=qcd dft_energy=-75.54114888 gap_energy=-77.37265350923859 relaxed_gap_energy=-78.93782902086582 energy=-78.93782902086582 free_energy=-78.93782902086582 pbc="T T T"
Mo       8.44841029       8.93473660      11.43547422      -0.00005088       0.00015174       0.00021451
Mo       9.60381728      11.18376920      10.86624946      -0.00038602      -0.00025892       0.00038019
Mo      11.57110198       9.86741989      11.64648256       0.00000861       0.00029120      -0.00017532
Mo      10.90017909       8.22619386      10.72682813      -0.00023648      -0.00013803       0.00008850
Mo      10.09587611      12.72838089       8.58305769       0.00020668      -0.00027388       0.00032305
Mo      10.19950546       9.99406562       8.75882015       0.00008222       0.00008296      -0.00012636
Mo      12.13836620      10.39562506       9.02184618       0.00024624      -0.00000454      -0.00000015
Mo       9.25943120       9.49486012      13.07308571       0.00006529      -0.00019641      -0.00031261
Mo      11.43254779      12.77437451       9.94852982       0.00006434       0.00034588      -0.00039181
10
Lattice="18.60048678158223 0.0 0.0 0.0 18.60048678158223 0.0 0.0 0.0 18.60048678158223" Properties=species:S:1:pos:R:3:forces:R:3 config_type=qcd dft_energy=-84.92018382 gap_energy=-85.9869536520247 relaxed_gap_energy=-87.73450834704448 energy=-87.73450834704448 free_energy=-87.73450834704448 pbc="T T T"
Mo       7.66456869       9.27088430       6.93387001       0.00004444       0.00021853       0.00015445
Mo       7.37385892       8.12135946       9.32514307      -0.00010922       0.00006322       0.00023853
Mo       7.10900164       9.99592623       9.97472515       0.00035268      -0.00026805      -0.00019784
Mo      10.51151170       7.61428879      10.76776221       0.00029029       0.00007348      -0.00002841
Mo       9.71508618       8.61571433       8.44706283       0.00000248       0.00016892      -0.00000283
Mo      12.25309438       9.61179192       9.28140343      -0.00012707      -0.00042432       0.00033425
Mo       8.44240977      10.80179715       7.85734676       0.00000388      -0.00014544       0.00002118
Mo      11.44062837      10.92072566       8.36726455      -0.00005376       0.00037555      -0.00032508
Mo       8.82127977       7.98809409      11.61798405      -0.00013944       0.00020880      -0.00010865
Mo       9.67099450      10.06185197      10.42987182      -0.00026428      -0.00027069      -0.00008559
11
Lattice="24.47206935920269 0.0 0.0 0.0 24.47206935920269 0.0 0.0 0.0 24.47206935920269" Properties=species:S:1:pos:R:3:forces:R:3 config_type=qcd dft_energy=-93.8542338 gap_energy=-95.58352201852156 relaxed_gap_energy=-97.6779320275513 energy=-97.6779320275513 free_energy=-97.6779320275513 pbc="T T T"
Mo      10.42053759      10.64123787      11.11138267      -0.00008885      -0.00004096      -0.00011321
Mo      15.16060946      12.56759720      12.33729040       0.00034824      -0.00044169       0.00015194
Mo      10.34089222      12.26919096      13.91870221      -0.00005959       0.00008962       0.00029840
Mo       9.16961820      12.60208070      12.43926878      -0.00028267      -0.00021016       0.00010858
Mo      13.02176765      11.09468368      12.97829856       0.00010438       0.00039599      -0.00043491
Mo      14.24175115      12.96496471      10.63922673      -0.00018939       0.00016978       0.00001079
Mo      13.34851782      14.09821094      13.54711421      -0.00006751      -0.00009644       0.00004870
Mo      11.82293322      12.82432413      11.78750285      -0.00011270      -0.00013158       0.00009455
Mo      10.66447656       9.83339745      12.89284060      -0.00033342       0.00014907      -0.00003815
Mo      13.09283933      10.57930699      11.01725105       0.00061732       0.00036842       0.00019062
Mo      13.31243826      15.12138683      11.92750342       0.00006419      -0.00025204      -0.00031729
12
Lattice="30.0 0.0 0.0 0.0 30.0 0.0 0.0 0.0 30.0" Properties=species:S:1:pos:R:3:forces:R:3 config_type=qcd dft_energy=-103.21069734 gap_energy=-101.85038527757182 relaxed_gap_energy=-102.01785619205478 energy=-102.01785619205478 free_energy=-102.01785619205478 pbc="T T T"
Mo      10.86499596       9.93114709      10.33411910       0.00002881      -0.00006818      -0.00009640
Mo       7.04036396       7.97429749       7.57129189       0.00008977      -0.00010750       0.00000656
Mo       7.08474249      10.68793973       8.80444450      -0.00005010       0.00010767      -0.00004448
Mo       8.05228200       6.88805236      10.15642547      -0.00012185       0.00020010      -0.00002957
Mo       8.50925724       7.12922322       7.22047509       0.00015190      -0.00046343       0.00028248
Mo       9.85319808      11.01735268       7.74897497       0.00000175       0.00008194       0.00002379
Mo      10.82070451       7.21741496       9.10100823       0.00014191       0.00000677      -0.00011483
Mo      11.16372910       8.34101884       7.83030712       0.00002665       0.00051868      -0.00003639
Mo       8.90060929       7.89710127      11.27766993      -0.00040793      -0.00018756       0.00005939
Mo       9.39611371      10.77633867      10.68490298       0.00023518      -0.00038920       0.00019768
Mo       6.74165452       9.56430086      10.07516556       0.00019973       0.00033011      -0.00012714
Mo       9.00489325      10.00835693       6.62775914      -0.00029582      -0.00002942      -0.00012110
13
Lattice="30.0 0.0 0.0 0.0 30.0 0.0 0.0 0.0 30.0" Properties=species:S:1:pos:R:3:forces:R:3 config_type=qcd dft_energy=-112.63669006 gap_energy=-114.37989754023916 relaxed_gap_energy=-116.59006034108704 energy=-116.59006034108704 free_energy=-116.59006034108704 pbc="T T T"
Mo       8.15641887       8.16384296       6.15912113      -0.00031740       0.00021010       0.00036083
Mo      10.49397627       9.58624967       6.42927694      -0.00009082      -0.00018921       0.00048328
Mo       7.28793811       9.89940292       6.29167218       0.00026084      -0.00021197       0.00007773
Mo      11.28190935       8.29372851       8.72471712       0.00005932       0.00018920      -0.00008074
Mo       6.14158527       7.30184712       7.81982422      -0.00013587       0.00069971       0.00011601
Mo       7.83500160       6.48469607       9.82609007      -0.00041485       0.00010164       0.00030415
Mo       8.68777444       8.68295882       8.67546499       0.00082507      -0.00045075      -0.00028565
Mo       6.09349452       9.07159004       8.62588369       0.00041294      -0.00066659      -0.00004431
Mo      11.23429883      10.06333681       9.53105414      -0.00040025       0.00004941      -0.00076669
Mo       6.88179749       7.77923538      10.92134284       0.00067529       0.00013426      -0.00053542
Mo       9.54114834      10.88089553       7.52467647      -0.00006920       0.00027371       0.00031637
Mo      10.08794860       7.46638171      11.05933601      -0.00026056       0.00013654       0.00003250
Mo       9.21927585       9.20183775      11.19176535      -0.00054450      -0.00027605       0.00002194
14
Lattice="30.0 0.0 0.0 0.0 30.0 0.0 0.0 0.0 30.0" Properties=species:S:1:pos:R:3:forces:R:3 config_type=qcd dft_energy=-121.5940308 gap_energy=-122.60463507643838 relaxed_gap_energy=-124.717411230693 energy=-124.717411230693 free_energy=-124.717411230693 pbc="T T T"
Mo       9.21610922       6.85712020      10.66283743      -0.00009762      -0.00056950       0.00011675
Mo       9.01530642       6.11687563       7.62612005      -0.00017764       0.00024808       0.00019446
Mo       6.27569517       7.82675880       8.78964995      -0.00042998      -0.00020053      -0.00016262
Mo      10.81487731       6.89812491       9.52194405       0.00014791       0.00018385       0.00020125
Mo       9.99206393       7.31705274       6.53295242       0.00030021      -0.00007327      -0.00030221
Mo       6.83973830       8.61343464      10.43376769       0.00019038       0.00018960       0.00011189
Mo       8.90942836       8.64413457       8.66783919       0.00072753      -0.00043776      -0.00024153
Mo       7.50094123       8.34995414       6.14054902      -0.00001117       0.00006786       0.00019348
Mo       9.68644306       9.37061683      11.26607090      -0.00006486       0.00043438       0.00010264
Mo      11.10373886       9.54768263       9.91757499      -0.00009613      -0.00023349      -0.00004961
Mo       8.11726339      11.19517530      10.07939486       0.00004279      -0.00007918       0.00005802
Mo       8.51846866      10.02036041       6.16980991      -0.00029049       0.00001704      -0.00027119
Mo       6.84311330      10.24616309       7.88855943      -0.00025624       0.00029672      -0.00014709
Mo       9.48604322      11.28039862       8.65551517       0.00001533       0.00015621       0.00019575
14
Lattice="17.87538684027786 0.0 0.0 0.0 17.87538684027786 0.0 0.0 0.0 17.87538684027786" Properties=species:S:1:pos:R:3:forces:R:3 config_type=qcd dft_energy=-121.56853127 gap_energy=-122.75775817763045 relaxed_gap_energy=-124.68641475395115 energy=-124.68641475395115 free_energy=-124.68641475395115 pbc="T T T"
Mo       8.78783136      11.64819224       7.89132388      -0.00002644       0.00070575      -0.00028623
Mo       7.51339919      12.17816695       9.13559434       0.00015775      -0.00021340      -0.00016649
Mo       8.26202889       8.43935866       6.37726069       0.00023543       0.00008495      -0.00025869
Mo      10.07863066       9.03472114       8.21612888      -0.00012729       0.00009562       0.00035576
Mo       7.22953157       9.50154460       8.63306016      -0.00070637       0.00017671       0.00043495
Mo       9.21619210      10.37865262      10.37322009       0.00023037      -0.00003234       0.00027065
Mo       6.82137965       9.45428399      11.24482948       0.00018341       0.00014864      -0.00038889
Mo      11.80980498       9.75397564      10.15353559      -0.00036398      -0.00007872       0.00010432
Mo       6.63665627       7.72092881      10.45349953       0.00017058      -0.00040727      -0.00001633
Mo      10.68682591       7.32556018       6.19762981       0.00006185      -0.00039975      -0.00012791
Mo       7.66377053       7.01636574       7.60599309      -0.00023218       0.00004400       0.00017545
Mo      10.97609268       8.70059796      11.51211517       0.00015571      -0.00005858      -0.00015436
Mo       9.23606129       7.82741272       9.69024796      -0.00001098      -0.00001918       0.00015601
Mo      10.20950281       6.14794663       7.64326921       0.00027215      -0.00004644      -0.00009824
15
Lattice="25.12580189225228 0.0 0.0 0.0 25.12580189225228 0.0 0.0 0.0 25.12580189225228" Properties=species:S:1:pos:R:3:forces:R:3 config_type=qcd dft_energy=-131.21989693 gap_energy=-132.2390206834504 relaxed_gap_energy=-134.34641322724593 energy=-134.34641322724593 free_energy=-134.34641322724593 pbc="T T T"
Mo      12.52799865      12.51906681      12.63074874       0.00041389      -0.00025766      -0.00048828
Mo      13.55249268      14.15294187      14.27413276      -0.00021436       0.00014683       0.00022162
Mo      11.46684273      10.83905008      11.05861870       0.00037145      -0.00007825      -0.00017708
Mo      13.49864106      15.13279013      11.69459567       0.00005441      -0.00000299       0.00023528
Mo      15.11128242      12.04633893      14.17908537      -0.00003742      -0.00039050       0.00051357
Mo      13.46836214      12.30716927       9.85203725       0.00012568      -0.00044846       0.00054132
Mo      11.95589250      13.53811045      10.21636742      -0.00010703       0.00036856      -0.00040707
Mo      14.26745369      10.58234344      12.09888748      -0.00038435       0.00027683      -0.00024895
Mo      10.89523237      14.58984162      12.95525719      -0.00010944      -0.00010740      -0.00038036
Mo       9.62369815      12.58819240      11.70648124      -0.00055187       0.00007134       0.00059372
Mo      13.38420340      11.69610330      15.03677556       0.00017964       0.00000266      -0.00038017
Mo      10.93606570      13.53593180      14.60932428       0.00001494      -0.00039544      -0.00000692
Mo      12.81141224       9.85756313      13.19573022       0.00048153      -0.00004176       0.00031238
Mo      10.14463932      11.42248549      13.19337206      -0.00025739       0.00068392       0.00001896
Mo      14.79929713      13.63558549      11.74210026       0.00002033       0.00017232      -0.00034804
16
Lattice="26.15608451198158 0.0 0.0 0.0 26.15608451198158 0.0 0.0 0.0 26.15608451198158" Properties=species:S:1:pos:R:3:forces:R:3 config_type=qcd dft_energy=-139.96894097 gap_energy=-140.8138458181838 relaxed_gap_energy=-143.71385761325013 energy=-143.71385761325013 free_energy=-143.71385761325013 pbc="T T T"
Mo      14.07258953      11.96771293      15.85141064       0.00028120      -0.00092146      -0.00016832
Mo      12.13074834      11.73774909      15.73723463       0.00021240       0.00065244      -0.00023760
Mo      11.67503077      14.37499198      15.40385642      -0.00008808       0.00042229       0.00012372
Mo      13.62044986      14.58230643      15.40416282       0.00026810      -0.00052445       0.00073739
Mo      12.56229219      10.09638474      13.67162664       0.00025052       0.00008769       0.00071354
Mo      10.54501346      13.38715337      12.83685166      -0.00034314      -0.00029948      -0.00075058
Mo      12.45280501      15.31185954      12.97676942      -0.00014115       0.00002873       0.00031314
Mo      15.11130671      15.23658939      12.94225436       0.00013368      -0.00007479      -0.00013628
Mo      14.48395613      10.50430745      13.52095327       0.00058865      -0.00010500       0.00027090
Mo      13.20765495      12.77332251      13.40464021      -0.00083971       0.00035182       0.00012026
Mo      13.13066111      13.73827159      10.94923658      -0.00058902      -0.00041114       0.00013459
Mo      12.11398095      11.44098139      11.42794303      -0.00011765       0.00033768      -0.00014657
Mo      13.96428388      10.78828196      10.90466451      -0.00020879      -0.00010698      -0.00023537
Mo      10.60333786      14.44578017      11.20801606      -0.00011446      -0.00021560      -0.00057943
Mo      14.45298161      15.96877418      11.27538230       0.00065129       0.00024069      -0.00008221
Mo      15.12158376      12.89420935      11.73367352       0.00005615       0.00053755      -0.00007717
16
Lattice="18.2913553187741 0.0 0.0 0.0 18.2913553187741 0.0 0.0 0.0 18.2913553187741" Properties=species:S:1:pos:R:3:forces:R:3 config_type=qcd dft_energy=-139.96356968 gap_energy=-140.46600382887559 relaxed_gap_energy=-143.55648811468672 energy=-143.55648811468672 free_energy=-143.55648811468672 pbc="T T T"
Mo      10.21273326      11.56377001       8.85402182       0.00009356       0.00001449      -0.00033572
Mo      10.80183920       9.22341104      10.46470982       0.00032349      -0.00016745       0.00039871
Mo      11.13141022       9.09150043       7.90084854       0.00013011       0.00016203       0.00008103
Mo       8.92320161      10.67615417       6.76390997      -0.00009284      -0.00005263       0.00023489
Mo       8.57049688      11.17753596       9.94268384      -0.00008219       0.00017752      -0.00008530
Mo      11.30297765       7.38673550       9.87696911      -0.00021143       0.00000169      -0.00020254
Mo       7.21915050      11.07605374       7.72303402       0.00011236      -0.00017710       0.00002334
Mo       9.31461292       7.98532035       5.92025199      -0.00005771       0.00016129      -0.00027962
Mo       9.89332744       6.79282085       7.38989262      -0.00000993       0.00022260       0.00026531
Mo       8.79123100       8.84134320       8.73717540      -0.00046783      -0.00000111       0.00018347
Mo       6.41912783       8.97618475       9.65208860       0.00020127      -0.00023194       0.00003002
Mo       8.69926446       6.78556631      10.31987923       0.00008043      -0.00024225      -0.00000002
Mo       8.43632707       8.49521363      11.35361550       0.00024016       0.00031740       0.00003159
Mo       6.83828898       8.29556012       7.12615839       0.00024262      -0.00019084      -0.00015394
Mo       7.29991130       6.45729996       7.81242825      -0.00028157      -0.00004155      -0.00001759
Mo       6.01509359       7.04226158      10.02735080      -0.00022050       0.00004783      -0.00017363
17
Lattice="20.15280861356774 0.0 0.0 0.0 20.15280861356774 0.0 0.0 0.0 20.15280861356774" Properties=species:S:1:pos:R:3:forces:R:3 config_type=qcd dft_energy=-149.90162581 gap_energy=-150.2763191828209 relaxed_gap_energy=-152.97282225637406 energy=-152.97282225637406 free_energy=-152.97282225637406 pbc="T T T"
Mo       7.73347874       9.16721492       7.76189289      -0.00012824      -0.00029642      -0.00062648
Mo       9.64539308       7.43715746       8.62448994      -0.00044782       0.00001942      -0.00057944
Mo       9.45481823       9.31791678       6.73205250       0.00011546      -0.00000684       0.00032499
Mo       7.43034178       7.41077825      10.11355711       0.00008593      -0.00062160       0.00025173
Mo       6.89550634       9.92887113      10.71794937      -0.00025651       0.00010846      -0.00002525
Mo       7.78944169      11.72514658       8.48548856       0.00000035       0.00031907       0.00058040
Mo       9.04673473       7.57839097      11.27411078       0.00014864      -0.00007706       0.00015275
Mo      12.09933554       7.58897030       8.19127780       0.00011276       0.00037161       0.00017983
Mo       8.09845376       9.78881350      12.29785677      -0.00038702       0.00022275       0.00033453
Mo       9.60879677      11.84195446       7.69429398      -0.00007899      -0.00079597       0.00015639
Mo       9.32033415       9.78093648       9.71812130       0.00051119      -0.00002857      -0.00070567
Mo       8.89495546      12.21867855      10.82458943       0.00029861       0.00000548       0.00013302
Mo      11.66175713       7.82299744      10.44633462      -0.00013509       0.00037201       0.00000905
Mo      11.53685167       9.85995740       8.55033454       0.00040177      -0.00004950      -0.00001396
Mo      10.85364914      10.10163137      11.67746733      -0.00048599       0.00004492       0.00043362
Mo      10.77442727      12.18484747      10.08747006       0.00056137       0.00069829      -0.00003823
Mo      12.88902995       9.90035988      10.51528075      -0.00031643      -0.00028605      -0.00056729
17
Lattice="21.8542267125208 0.0 0.0 0.0 21.8542267125208 0.0 0.0 0.0 21.8542267125208" Properties=species:S:1:pos:R:3:forces:R:3 config_type=qcd dft_energy=-149.8602074 gap_energy=-150.7924319342733 relaxed_gap_energy=-153.4392081127963 energy=-153.4392081127963 free_energy=-153.4392081127963 pbc="T T T"
Mo       8.28886214       8.58734892      11.75332936       0.00002776      -0.00017169       0.00035290
Mo      10.79441674       8.07097461      10.95406657       0.00001187       0.00009502       0.00037453
Mo       8.87741752       6.35092896       9.62814358       0.00034827       0.00016067      -0.00000184
Mo       6.28509377       9.77758106      10.02052574      -0.00049460      -0.00005954      -0.00026077
Mo       8.54223004      10.49492550      11.35628675       0.00000111       0.00004360      -0.00011012
Mo       6.35217442       7.07201351      10.20532442      -0.00002120      -0.00011909       0.00014622
Mo      10.77821934       9.82885620      10.07461573      -0.00006212      -0.00001448      -0.00018487
Mo       6.25656447       7.69125277       8.31956155      -0.00034538      -0.00044073       0.00006305
Mo       8.35853301       8.93897425       6.41775882      -0.00013703       0.00040066       0.00011643
Mo      10.39071957       7.40478999       5.54344434      -0.00032775       0.00023418      -0.00004845
Mo      10.69151452       7.87845600       8.17321034      -0.00022095      -0.00034141      -0.00055082
Mo       6.37467950      10.46516449       7.43862137       0.00034395       0.00014346      -0.00007563
Mo       9.77318679      10.17002483       7.13136683       0.00015227       0.00003869       0.00025852
Mo       8.48890979       8.91211535       9.10600409       0.00037977      -0.00006380       0.00003836
Mo      11.67721310       8.78507925       5.86505203       0.00000666      -0.00016388       0.00018247
Mo       8.47188011       6.35811100       7.67094051       0.00018466       0.00011684       0.00006622
Mo       7.75729127      11.37230939       8.50065408       0.00015270       0.00014152      -0.00036620
18
Lattice="19.13250892955726 0.0 0.0 0.0 19.13250892955726 0.0 0.0 0.0 19.13250892955726" Properties=species:S:1:pos:R:3:forces:R:3 config_type=qcd dft_energy=-158.52981458 gap_energy=-159.14364824397404 relaxed_gap_energy=-162.39931497357833 energy=-162.39931497357833 free_energy=-162.39931497357833 pbc="T T T"
Mo      12.65358218      10.89596752       9.43315104       0.00008224      -0.00008726       0.00027084
Mo      12.33627410       8.42828013      10.90072215       0.00020759      -0.00000801       0.00000565
Mo      11.40479297       9.56946126      12.23143075      -0.00013512       0.00011985      -0.00004771
Mo      11.49108385       8.92112344       8.17678981       0.00049864      -0.00014019      -0.00024488
Mo      10.36336367       9.74241017       6.57113577       0.00002362      -0.00012091       0.00003707
Mo      11.62469565      11.57872769       7.83398539       0.00009534      -0.00015584      -0.00036258
Mo      10.15287524      12.97838350       9.48312353      -0.00031262       0.00014229       0.00000419