3
Lattice="16.58739553591112 0.0 0.0 0.0 16.58739553591112 0.0 0.0 0.0 16.58739553591112" Properties=species:S:1:pos:R:3:forces:R:3 config_type=qcd dft_energy=-1.78051808 gap_energy=-1.4580462471591604 relaxed_gap_energy=-1.5842088491819803 energy=-1.5842088491819803 free_energy=-1.5842088491819803 pbc="T T T"
Na       7.60046332       7.66085567       5.16335594      -0.00005630      -0.00006382       0.00043578
Na       5.70462648       5.60618050       7.08305279       0.00015342       0.00016531      -0.00002392
Na       7.79286713       7.84290662       8.54496496      -0.00009712      -0.00010148      -0.00041187
3
Lattice="20.28365301511804 0.0 0.0 0.0 20.28365301511804 0.0 0.0 0.0 20.28365301511804" Properties=species:S:1:pos:R:3:forces:R:3 config_type=qcd dft_energy=-1.75880786 gap_energy=-1.4192140981818293 relaxed_gap_energy=-1.5842087942501657 energy=-1.5842087942501657 free_energy=-1.5842087942501657 pbc="T T T"
Na      11.01632725      11.35944999      11.40107476       0.00000428       0.00009413       0.00018653
Na       8.47775017       9.24207517      10.64496792      -0.00028643      -0.00006735       0.00026565
Na      10.93140211       9.82395435       8.37943683       0.00028215      -0.00002678      -0.00045219
3
Lattice="30.0 0.0 0.0 0.0 30.0 0.0 0.0 0.0 30.0" Properties=species:S:1:pos:R:3:forces:R:3 config_type=qcd dft_energy=-1.75559777 gap_energy=-1.5556026367942641 relaxed_gap_energy=-1.5842082221197515 energy=-1.5842082221197515 free_energy=-1.5842082221197515 pbc="T T T"
Na       7.59641902       7.65672207       5.16171233       0.00009001       0.00010229      -0.00072516
Na       5.70551036       5.60668211       7.08973401      -0.00042901      -0.00046125      -0.00008290
Na       7.79602756       7.84653861       8.53992735       0.00033899       0.00035896       0.00080807
3
Lattice="18.46542666677124 0.0 0.0 0.0 18.46542666677124 0.0 0.0 0.0 18.46542666677124" Properties=species:S:1:pos:R:3:forces:R:3 config_type=qcd dft_energy=-1.74584829 gap_energy=-1.3776850583036222 relaxed_gap_energy=-1.3970765684750457 energy=-1.3970765684750457 free_energy=-1.3970765684750457 pbc="T T T"
Na      10.86804292      10.86993622      10.86986229       0.00003887      -0.00071031      -0.00025084
Na      11.36468276      14.09617176      11.84526749      -0.00006208       0.00007562       0.00004081
Na      10.37530699       7.64192469       9.89290290       0.00002321       0.00063469       0.00021003
4
Lattice="17.9063704852175 0.0 0.0 0.0 17.9063704852175 0.0 0.0 0.0 17.9063704852175" Properties=species:S:1:pos:R:3:forces:R:3 config_type=qcd dft_energy=-2.77491934 gap_energy=-2.3110748953333817 relaxed_gap_energy=-2.3441454788679317 energy=-2.3441454788679317 free_energy=-2.3441454788679317 pbc="T T T"
Na      10.67247116      12.51973356      12.26425030       0.00018900      -0.00022074       0.00008790
Na      11.80042212       9.95934865      10.19257050      -0.00002185       0.00029108       0.00001361
Na      10.61523032      12.88493606       8.85796707      -0.00002217      -0.00018508      -0.00002495
Na      11.84098603       9.58735749      13.59863747      -0.00014498       0.00011475      -0.00007656
4
Lattice="30.0 0.0 0.0 0.0 30.0 0.0 0.0 0.0 30.0" Properties=species:S:1:pos:R:3:forces:R:3 config_type=qcd dft_energy=-2.74847681 gap_energy=-2.1177052015612063 relaxed_gap_energy=-2.489834336213143 energy=-2.489834336213143 free_energy=-2.489834336213143 pbc="T T T"
Na       9.68246394       9.06657379       7.42823659       0.00004941       0.00008707       0.00017704
Na      11.34902187       9.28883589      10.42152290      -0.00008753      -0.00003330      -0.00012019
Na       8.76476304      11.44022162       9.73233795      -0.00001032      -0.00018372      -0.00005188
Na       8.12169501       8.12231255      10.33584642       0.00004845       0.00012994      -0.00000498
5
Lattice="18.55922184051447 0.0 0.0 0.0 18.55922184051447 0.0 0.0 0.0 18.55922184051447" Properties=species:S:1:pos:R:3:forces:R:3 config_type=qcd dft_energy=-3.73031025 gap_energy=-3.0913253818508064 relaxed_gap_energy=-3.094063390389519 energy=-3.094063390389519 free_energy=-3.094063390389519 pbc="T T T"
Na       6.71979084       7.28861316       5.58936621       0.00015410       0.00045654      -0.00034187
Na       9.88813314       6.01049287       5.43543389       0.00014621      -0.00036736      -0.00025402
Na       5.62858123       8.83987936       8.43125598       0.00018044      -0.00053303       0.00047708
Na       8.93445797       7.57807202       8.33049325      -0.00055768       0.00017595       0.00049039
Na       7.72708262       9.18194014      11.11063713       0.00007693       0.00026790      -0.00037157
6
Lattice="18.69066515419787 0.0 0.0 0.0 18.69066515419787 0.0 0.0 0.0 18.69066515419787" Properties=species:S:1:pos:R:3:forces:R:3 config_type=qcd dft_energy=-4.88773886 gap_energy=-4.065035521510794 relaxed_gap_energy=-4.578733455326846 energy=-4.578733455326846 free_energy=-4.578733455326846 pbc="T T T"
Na       7.30241960      10.42371380       8.36041918      -0.00039750      -0.00017820      -0.00002130
Na      10.28767201       9.02521611       7.03743935       0.00023995      -0.00008994       0.00062218
Na       8.23069648       7.09806393       9.20004205      -0.00006093       0.00038032       0.00022801
Na      11.38784525       8.26868503      10.33270807       0.00049908      -0.00041329      -0.00064286
Na      10.46079754      11.59161230       9.48855823      -0.00000996       0.00012535       0.00023100
Na       8.40256459       9.66470428      11.65282859      -0.00027064       0.00017576      -0.00041703
6
Lattice="19.50501588678731 0.0 0.0 0.0 19.50501588678731 0.0 0.0 0.0 19.50501588678731" Properties=species:S:1:pos:R:3:forces:R:3 config_type=qcd dft_energy=-4.85325925 gap_energy=-3.821997062278886 relaxed_gap_energy=-3.8233841193833515 energy=-3.8233841193833515 free_energy=-3.8233841193833515 pbc="T T T"
Na       8.72400962       8.30941962       6.20706093       0.00039572      -0.00043360      -0.00002648
Na      11.19521550       8.98411318       8.49605229      -0.00069669       0.00029631      -0.00006238
Na       7.77617498       9.75614184       9.17358138       0.00007698       0.00020253      -0.00063283
Na      13.55511615       9.71963357      10.87959940      -0.00037094       0.00007543       0.00047058
Na       6.97751046      11.23609520      12.16608238       0.00044707      -0.00002028       0.00083117
Na      10.28702095      10.50964426      11.59267130       0.00014785      -0.00012037      -0.00058005
7
Lattice="17.91054557584333 0.0 0.0 0.0 17.91054557584333 0.0 0.0 0.0 17.91054557584333" Properties=species:S:1:pos:R:3:forces:R:3 config_type=qcd dft_energy=-6.03740808 gap_energy=-5.4838829838507115 relaxed_gap_energy=-5.492176880019598 energy=-5.492176880019598 free_energy=-5.492176880019598 pbc="T T T"
Na      10.68124663       6.85174778       7.69157232       0.00022579      -0.00010611       0.00003779
Na       7.62401454       8.06174960       6.41925250      -0.00018805       0.00035269       0.00008289
Na       6.40645787      10.50720553       8.65104670      -0.00005766       0.00002513      -0.00044230
Na       9.97263014      10.40416687       7.91302350      -0.00025538      -0.00029618       0.00012673
Na       8.71662705      10.81408590      11.29670745       0.00040915       0.00007740       0.00024959
Na      11.34843086       8.53772473      10.71611823      -0.00023086       0.00027352      -0.00002323
Na       7.93750241       7.51022912       9.99918882       0.00009701      -0.00032644      -0.00003149
8
Lattice="18.532187 0.0 0.0 0.0 18.532187 0.0 0.0 0.0 18.532187" Properties=species:S:1:pos:R:3:forces:R:3 config_type=qcd dft_energy=-7.24677224 gap_energy=-6.514171723107905 relaxed_gap_energy=-6.564483155175809 energy=-6.564483155175809 free_energy=-6.564483155175809 pbc="T T T"
Na      11.16940052       9.06418351       7.88385782       0.00019708       0.00012946       0.00018580
Na      10.43559334      10.10753068      11.18233254      -0.00007698      -0.00003297      -0.00042076
Na       8.12758063       7.36164552       8.45340089      -0.00008794      -0.00010442       0.00009167
Na       7.30618900      10.59734735       9.61586829       0.00003662       0.00009268       0.00009009
Na       7.79353318       7.84859977      11.96376715      -0.00015949       0.00038149       0.00048157
Na      10.10513992      12.42412847       8.38201577      -0.00022427       0.00018275       0.00049951
Na      10.88751017       6.62746758      10.58414932       0.00011938      -0.00033812      -0.00047055
Na       8.25293771      10.23173804       6.20504912       0.00019561      -0.00031087      -0.00045732
8
Lattice="22.67397116537491 0.0 0.0 0.0 22.67397116537491 0.0 0.0 0.0 22.67397116537491" Properties=species:S:1:pos:R:3:forces:R:3 config_type=qcd dft_energy=-7.21432282 gap_energy=-6.516685837809355 relaxed_gap_energy=-6.564482307716533 energy=-6.564482307716533 free_energy=-6.564482307716533 pbc="T T T"
Na       9.65279283      11.61875959      14.25092444       0.00060345       0.00018514      -0.00065974
Na      12.44666902      12.66730260       9.70297374      -0.00006141       0.00038163       0.00031993
Na      10.99273413      14.48300357      12.51570367      -0.00022545      -0.00083707      -0.00008086
Na      10.77235239       9.08613850      11.87224004      -0.00040888       0.00024451       0.00031049
Na      10.80699226       9.79760797       8.38110001      -0.00040782      -0.00036421       0.00000731
Na       9.13554138      12.00943912      10.75063910      -0.00016868       0.00038475      -0.00021210
Na      12.99462778      11.58287940      13.02038977       0.00009328      -0.00014443       0.00045006
Na      13.89417487       9.45075391      10.20191387       0.00057551       0.00014968      -0.00013509
9
Lattice="20.99559075984361 0.0 0.0 0.0 20.99559075984361 0.0 0.0 0.0 20.99559075984361" Properties=species:S:1:pos:R:3:forces:R:3 config_type=qcd dft_energy=-7.99033556 gap_energy=-7.431473652019414 relaxed_gap_energy=-7.467850849483678 energy=-7.467850849483678 free_energy=-7.467850849483678 pbc="T T T"
Na      10.64596584      11.71562210       6.25361912      -0.00047840       0.00010915       0.00048462
Na       9.02561821       9.23144938       8.12289251       0.00051651       0.00008302      -0.00012393
Na      11.99443621      10.74582294       9.36094781       0.00004107      -0.00016256      -0.00004103
Na       9.24195501      12.98182052       9.20834458       0.00025434      -0.00018900      -0.00012383
Na      10.73627847       7.85647472      11.01693676      -0.00038174      -0.00034343       0.00029077
Na       8.25255173      10.36742482      11.38746279       0.00061308       0.00005251      -0.00042409
Na      10.99030687      12.41317692      12.34182723      -0.00021663       0.00027935       0.00033052
Na      13.35043092       9.73569240      12.57730695      -0.00041183       0.00012313      -0.00060375
Na      10.24261518       9.43267460      14.21082066       0.00006359       0.00004785       0.00021072
9
Lattice="19.92265063340663 0.0 0.0 0.0 19.92265063340663 0.0 0.0 0.0 19.92265063340663" Properties=species:S:1:pos:R:3:forces:R:3 config_type=qcd dft_energy=-7.96521179 gap_energy=-7.443192992914034 relaxed_gap_energy=-7.567988249662646 energy=-7.567988249662646 free_energy=-7.567988249662646 pbc="T T T"
Na       6.51673804      10.76025154       9.19038803      -0.00023993       0.00025262      -0.00041933
Na      12.66521137       9.80597735       8.56546851      -0.00066795       0.00018623       0.00015534
Na       9.21250213       8.65924061       7.66143063      -0.00054353      -0.00027990      -0.00059495
Na       9.76762094      11.83948534       8.80724854       0.00056852      -0.00044325      -0.00013964
Na      11.16718671       6.57127323       9.63844101       0.00014975       0.00038471       0.00032169
Na       8.14920632       8.28986202      10.95567385       0.00059264       0.00043419      -0.00024088
Na      11.29470218       9.36581818      11.69946236       0.00055498      -0.00069058       0.00041952
Na      12.19632563      12.57241244      11.06141701       0.00007482       0.00019209      -0.00023261
Na       8.68243451      11.78760715      12.07239792      -0.00048931      -0.00003611       0.00073087
9
Lattice="18.46093550890769 0.0 0.0 0.0 18.46093550890769 0.0 0.0 0.0 18.46093550890769" Properties=species:S:1:pos:R:3:forces:R:3 config_type=qcd dft_energy=-7.95907845 gap_energy=-7.5102184040331785 relaxed_gap_energy=-7.570355398052113 energy=-7.570355398052113 free_energy=-7.570355398052113 pbc="T T T"
Na      11.57199917       8.10746296       7.79705987      -0.00020140       0.00003930       0.00006988
Na       8.23679932       8.84345239       7.00286401       0.00014634       0.00075515      -0.00042589
Na      10.35662290      11.48562729       6.62359605      -0.00003215      -0.00018216       0.00006610
Na       7.49779672      11.76733399       9.02410917      -0.00063858      -0.00019823      -0.00048720
Na       7.12837786       8.35123376      10.19997506      -0.00003934       0.00026691      -0.00007278
Na      10.61867139      10.67584544       9.93140889       0.00002166      -0.00002435       0.00023646
Na       9.00615164       5.71091144       8.60955090      -0.00012138      -0.00035928       0.00000003
Na       8.33853908      10.58255886      12.47451713       0.00021820       0.00023406       0.00015443
Na      10.31925170       7.54978364      11.41112871       0.00064665      -0.00053140       0.00045897
9
Lattice="23.57393719323098 0.0 0.0 0.0 23.57393719323098 0.0 0.0 0.0 23.57393719323098" Properties=species:S:1:pos:R:3:forces:R:3 config_type=qcd dft_energy=-7.9508404 gap_energy=-7.454461967243164 relaxed_gap_energy=-7.570355892722278 energy=-7.570355892722278 free_energy=-7.570355892722278 pbc="T T T"
Na      14.64385659       9.62702769      12.35046641       0.00037076      -0.00006508      -0.00002818
Na      13.51284252      12.40576639      10.71686022       0.00014263       0.00025962       0.00083681
Na      13.54450932      12.73096874      14.13326902      -0.00015074      -0.00028796      -0.00052208
Na      11.78575321       9.51286336       9.88627304      -0.00051933      -0.00023660      -0.00023543
Na      12.25488873      15.38189143      11.82368709       0.00009414       0.00029636       0.00034254
Na       8.54459296      10.38602857      11.19359044       0.00012216       0.00024391       0.00050782
Na      11.39755962       9.90969785      13.34930487       0.00034950      -0.00005517      -0.00006192
Na      10.30574260      13.07102626       9.56426829       0.00009587      -0.00032657      -0.00046178
Na      10.09297184      13.05744709      13.06499797      -0.00050498       0.00017148      -0.00037778
10
Lattice="18.33785652912237 0.0 0.0 0.0 18.33785652912237 0.0 0.0 0.0 18.33785652912237" Properties=species:S:1:pos:R:3:forces:R:3 config_type=qcd dft_energy=-9.07627854 gap_energy=-8.36291655738972 relaxed_gap_energy=-8.585310897535214 energy=-8.585310897535214 free_energy=-8.585310897535214 pbc="T T T"
Na      11.36935184      11.62939429      14.63103730      -0.00047260      -0.00048640       0.00023703
Na      13.96866398      12.59936668      12.03106776       0.00030696       0.00025512       0.00010513
Na       8.73890045      11.40106896      12.32465257       0.00088702      -0.00022157       0.00027604
Na      13.23751778      14.39410011       9.21580872       0.00014925      -0.00012087      -0.00028868
Na      11.00698409      14.47056230      12.25498974      -0.00016765      -0.00008336       0.00008773
Na      13.52119665      10.66767797       8.92662136      -0.00037510      -0.00034960       0.00000926
Na      10.62557312      12.20880891       9.61476490      -0.00018869       0.00030572      -0.00046178
Na      12.47146111       9.54168765      12.03770613      -0.00021256       0.00057338       0.00037301
Na       9.67813554       8.39815080      13.67209732       0.00007217       0.00011498      -0.00028839
Na       9.93784546       8.82850102       9.95851347       0.00000119       0.00001259      -0.00004934
10
Lattice="20.07428430453447 0.0 0.0 0.0 20.07428430453447 0.0 0.0 0.0 20.07428430453447" Properties=species:S:1:pos:R:3:forces:R:3 config_type=qcd dft_energy=-9.06670712 gap_energy=-8.392608715253507 relaxed_gap_energy=-8.581121700190096 energy=-8.581121700190096 free_energy=-8.581121700190096 pbc="T T T"
Na       9.33182869       6.65374568       7.82981368       0.00028048       0.00049853       0.00028498
Na       9.65155185      10.03724919       7.62495843      -0.00016219      -0.00072515      -0.00032415
Na       8.46964467      12.86652701       9.33110690      -0.00003265       0.00012633      -0.00034090
Na       6.94068446       9.06876256       9.37802835       0.00026808       0.00017947      -0.00023169
Na      12.55313103       8.22412169       8.88977107      -0.00028201       0.00019748      -0.00026324
Na      11.88219678      11.59900983       9.60460382      -0.00035125      -0.00047846      -0.00038883
Na       9.95001165       7.77357293      10.98473852       0.00010096       0.00030842      -0.00026297
Na      10.74023749      13.42122028      12.24222293       0.00022942       0.00038410       0.00042155
Na      12.18302569       9.98877326      12.55068410       0.00045839      -0.00024832       0.00064819
Na       8.66910923      10.73843910      11.93549374      -0.00050924      -0.00024241       0.00045705
10
Lattice="24.0044699801 0.0 0.0 0.0 24.0044699801 0.0 0.0 0.0 24.0044699801" Properties=species:S:1:pos:R:3:forces:R:3 config_type=qcd dft_energy=-9.03983668 gap_energy=-8.480761871120052 relaxed_gap_energy=-8.58112811571868 energy=-8.58112811571868 free_energy=-8.58112811571868 pbc="T T T"
Na      14.72613030      13.33763935      10.68043093      -0.00033682      -0.00002649       0.00042687
Na       9.96415713      10.27545668      10.05101825      -0.00006976       0.00020296      -0.00045900
Na      11.39170019      13.62684168      10.27405234       0.00055864      -0.00050429      -0.00040664
Na      13.70192969      12.00596211      13.76502470       0.00016386       0.00029106       0.00005512
Na      12.17453045      14.98956657      13.41308946      -0.00036600       0.00011872       0.00026993
Na      11.14618867       9.40504978      13.86504272       0.00007454       0.00005416      -0.00044980
Na      11.16729556      12.47695544      15.98766712       0.00004692       0.00030384       0.00017594
Na       9.74455339      12.31531836      12.89968473       0.00038242      -0.00011421       0.00058576
Na      12.83615429      11.52831925       8.01632003      -0.00022544      -0.00020750       0.00000638
Na      13.16971023      10.06124066      11.07001963      -0.00022836      -0.00011826      -0.00020456
10
Lattice="21.3974012940998 0.0 0.0 0.0 21.3974012940998 0.0 0.0 0.0 21.3974012940998" Properties=species:S:1:pos:R:3:forces:R:3 config_type=qcd dft_energy=-9.03969576 gap_energy=-8.464010941002545 relaxed_gap_energy=-8.568579473138257 energy=-8.568579473138257 free_energy=-8.568579473138257 pbc="T T T"
Na      10.22079055      11.91254041       6.70689444       0.00028173      -0.00020818       0.00003843
Na      12.67339089      10.04741789       8.59863881      -0.00082698       0.00004518      -0.00015629
Na       9.29221698       9.04411226       8.69592863       0.00035516      -0.00012851       0.00030487
Na      11.74346401      13.26881863       9.68805994       0.00006334       0.00027837      -0.00021511
Na       8.36508527      12.26420198       9.78660325      -0.00017652       0.00024049       0.00012623
Na      11.53456485       7.96117798      11.43292354      -0.00024942      -0.00010662       0.00023805
Na       8.49083492       9.53008955      12.27595757       0.00060953       0.00023230      -0.00034673
Na      13.26440581      10.95032999      12.13623463       0.00088747       0.00024477      -0.00021684
Na      10.22409623      12.52214344      12.97500141      -0.00038045      -0.00054997       0.00032212
Na      11.17815694       9.48617436      14.69076424      -0.00056387      -0.00004784      -0.00009472
10
Lattice="25.79032646045726 0.0 0.0 0.0 25.79032646045726 0.0 0.0 0.0 25.79032646045726" Properties=species:S:1:pos:R:3:forces:R:3 config_type=qcd dft_energy=-9.03480665 gap_energy=-8.430253493507697 relaxed_gap_energy=-8.58112905051355 energy=-8.58112905051355 free_energy=-8.58112905051355 pbc="T T T"
Na      11.35843394      14.65645154      10.55229366      -0.00032115      -0.00019230       0.00003659
Na      13.37302333      11.11947459      10.14404850      -0.00004668       0.00017148      -0.00016543
Na      14.53237722      14.12142782      11.54950603       0.00038673      -0.00015696       0.00023192
Na      12.59074256       8.80667096      12.97029914       0.00005527       0.00026936       0.00010816
Na      10.85815640      11.66398884      12.32099308       0.00006034      -0.00016269       0.00011371
Na      13.19934601      16.98333762      12.82117679       0.00007126       0.00023870      -0.00013388
Na      11.45868126      14.39889499      14.18959238      -0.00015277      -0.00034232       0.00031773
Na      14.73045070      11.39727316      13.51765939      -0.00004842      -0.00019416       0.00007254
Na      12.17053037      11.31281714      15.70894321      -0.00029023       0.00019757      -0.00053942
Na      14.67989053      14.49129562      15.17712010       0.00028565       0.00017132      -0.00004191
11
Lattice="23.23203739960123 0.0 0.0 0.0 23.23203739960123 0.0 0.0 0.0 23.23203739960123" Properties=species:S:1:pos:R:3:forces:R:3 config_type=qcd dft_energy=-10.04692706 gap_energy=-9.471282073954981 relaxed_gap_energy=-9.630849331051234 energy=-9.630849331051234 free_energy=-9.630849331051234 pbc="T T T"
Na       8.80814684      10.20276232       8.89463949       0.00022172      -0.00010001       0.00024513
Na       9.17649825      13.49302397       9.97575183      -0.00000018      -0.00045548      -0.00028603
Na      12.20304071      11.61612282       9.27077112      -0.00022403       0.00002397       0.00044425
Na      12.42051159      15.09815704      10.61543809      -0.00052532       0.00078882      -0.00018758
Na      10.98021369       8.77282066      11.25609835      -0.00026258      -0.00024772      -0.00006907
Na      15.02880556      12.87386181      11.13115846       0.00057765      -0.00016215      -0.00008632
Na      11.41110131       9.92687311      14.67329934      -0.00036791      -0.00056260       0.00072772
Na      14.06958111       9.85700646      12.36806155       0.00011416       0.00001628      -0.00061081
Na       8.37520044      10.72089617      12.46197065       0.00032578       0.00070509      -0.00056694
Na      11.27830004      12.59089341      12.59212841      -0.00001156      -0.00003694       0.00038753
Na      14.02480615      12.62378791      14.53688841       0.00015228       0.00003073       0.00000213
11
Lattice="20.46027138024292 0.0 0.0 0.0 20.46027138024292 0.0 0.0 0.0 20.46027138024292" Properties=species:S:1:pos:R:3:forces:R:3 config_type=qcd dft_energy=-10.04650021 gap_energy=-9.417795756986958 relaxed_gap_energy=-9.677099739136565 energy=-9.677099739136565 free_energy=-9.677099739136565 pbc="T T T"
Na      11.91628843       9.59098571       6.64255482      -0.00064783      -0.00025146      -0.00025706
Na      12.42145296      12.46590272       8.75919773       0.00016632      -0.00021896       0.00023890
Na       9.56697305      10.51510867       9.17491126       0.00036895      -0.00018693       0.00001715
Na      10.24853137       7.13196370       8.69734807       0.00017639      -0.00025413      -0.00033642
Na      13.16095180       8.99901607       9.80050042       0.00026042       0.00058914       0.00050450
Na       6.52577637      11.73516334      10.60085439       0.00065586       0.00044020       0.00040250
Na       9.62389287      13.57994018      10.83163329      -0.00027765       0.00041840      -0.00015383
Na      10.71892249       8.06416527      12.10876980      -0.00005100      -0.00007767      -0.00007988
Na       7.44162353       8.25152902      10.75209363      -0.00013659      -0.00009902       0.00016203
Na      12.11273549      11.37664395      12.12794083       0.00030918       0.00015577      -0.00026687
Na       8.79434423      10.82107397      13.03568834      -0.00082405      -0.00051535      -0.00023101
11
Lattice="18.1117640401304 0.0 0.0 0.0 18.1117640401304 0.0 0.0 0.0 18.1117640401304" Properties=species:S:1:pos:R:3:forces:R:3 config_type=qcd dft_energy=-10.04080557 gap_energy=-9.370202146367582 relaxed_gap_energy=-9.516730930093502 energy=-9.516730930093502 free_energy=-9.516730930093502 pbc="T T T"
Na      14.15017433      11.03989563      11.53185509      -0.00008774      -0.00028597       0.00018600
Na      12.02315141      12.19347545       8.93449690      -0.00010050       0.00001700       0.00013323
Na      13.81219205      14.44616302      11.44908192      -0.00006931       0.00015618       0.00011856
Na      12.36933606       8.74240531       9.68896117       0.00008631      -0.00009185       0.00040779
Na      11.99442480       8.73509655      13.27671790      -0.00018037       0.00030419      -0.00037060
Na      12.42119956      12.29752843      14.20921257      -0.00009535       0.00026283      -0.00046685
Na       9.09546446      10.84215262      13.45035925       0.00027088      -0.00054190       0.00050073
Na       9.90402144       9.40611933       7.40698424      -0.00016105      -0.00008334       0.00000051
Na       9.21461776       8.16044280      10.89157666      -0.00004548       0.00047657      -0.00032845
Na       8.70261562      11.40511453       9.91484368      -0.00013058      -0.00051399      -0.00043201
Na      10.48352652      13.70169066      11.75612100       0.00051319       0.00030029       0.00025108
11
Lattice="20.17469231789677 0.0 0.0 0.0 20.17469231789677 0.0 0.0 0.0 20.17469231789677" Properties=species:S:1:pos:R:3:forces:R:3 config_type=qcd dft_energy=-10.03412437 gap_energy=-9.466003504176431 relaxed_gap_energy=-9.559449954046947 energy=-9.559449954046947 free_energy=-9.559449954046947 pbc="T T T"
Na      10.10462816       7.27261485       7.24857431       0.00023471       0.00036178       0.00022478
Na       8.35343407      11.57781332       9.16756549       0.00055373       0.00040388       0.00014666
Na      13.01586712       7.43162705       9.40018098       0.00044708       0.00025393      -0.00019657
Na      11.39465391      10.32674410       8.24566745      -0.00077457       0.00030704       0.00051650
Na       7.06165193       8.42395326       8.62781302      -0.00014396      -0.00028622      -0.00000119
Na      13.70994216      10.58497638      10.83903295      -0.00026055      -0.00014378       0.00008396
Na       9.84522463       7.93807996      10.68279607      -0.00014098      -0.00072045      -0.00021848
Na       8.32656848      13.34788281      12.15999445      -0.00031539      -0.00001026      -0.00037816
Na      11.37516822      13.33401322      10.24006455       0.00021398      -0.00061629      -0.00027525
Na       7.12923281       9.95447274      11.93839754      -0.00041733       0.00031528       0.00019729
Na      10.64443626      10.76863010      12.41072092       0.00060327       0.00013508      -0.00009954
11
Lattice="25.22178646110742 0.0 0.0 0.0 25.22178646110742 0.0 0.0 0.0 25.22178646110742" Properties=species:S:1:pos:R:3:forces:R:3 config_type=qcd dft_energy=-10.02901079 gap_energy=-9.400085958170212 relaxed_gap_energy=-9.630767226409716 energy=-9.630767226409716 free_energy=-9.630767226409716 pbc="T T T"
Na      15.41613201      14.83625180      14.71463686      -0.00021310       0.00004432       0.00015377
Na      16.01345661      12.76541422      11.80460127      -0.00012606      -0.00042775       0.00015298
Na      13.69277426      15.83020767      11.85144757       0.00039436       0.00045988      -0.00077649
Na      14.42272917      11.46524221      14.60249450       0.00050544       0.00005173      -0.00046803
Na      13.90979703       9.52045991      11.56871833      -0.00011964       0.00052494       0.00067600
Na      12.64130500      12.60817600      11.19590866      -0.00031853      -0.00018830      -0.00013599
Na      11.34183324      10.08212977      13.89137672       0.00039968      -0.00019934       0.00037344
Na      10.33143989      10.29320765      10.53055150       0.00019637      -0.00027424      -0.00068984
Na      11.82159465      14.06586354      14.37999857      -0.00041617      -0.00065383       0.00002045
Na      10.19101876      14.90801297      11.11577107       0.00019853       0.00015055       0.00088317
Na       8.93774492      12.34485978      13.06432050      -0.00050087       0.00051203      -0.00018947
11
Lattice="19.68934502356562 0.0 0.0 0.0 19.68934502356562 0.0 0.0 0.0 19.68934502356562" Properties=species:S:1:pos:R:3:forces:R:3 config_type=qcd dft_energy=-10.02667061 gap_energy=-9.414403307074831 relaxed_gap_energy=-9.4285159297151 energy=-9.4285159297151 free_energy=-9.4285159297151 pbc="T T T"
Na      12.11891781       8.00168237       7.08994024      -0.00029660       0.00020901      -0.00034020
Na       9.48823004       7.73842538       9.45412164       0.00055795       0.00005814      -0.00009781
Na      11.79430836      13.27699586       9.08858466       0.00045175      -0.00034891       0.00021106
Na      13.38608654      11.20408966       6.82945674      -0.00079773      -0.00001094       0.00038348
Na       9.70019327      10.73535217       7.56026204       0.00020205      -0.00005779      -0.00011935
Na       6.62536819       9.87346854       9.39505171       0.00012760      -0.00007505      -0.00036946