3
Lattice="16.58267467049162 0.0 0.0 0.0 16.58267467049162 0.0 0.0 0.0 16.58267467049162" Properties=species:S:1:pos:R:3:forces:R:3 config_type=qcd dft_energy=-18.46663653 gap_energy=-19.366975625584804 relaxed_gap_energy=-19.40462417986497 energy=-19.40462417986497 free_energy=-19.40462417986497 pbc="T T T"
Nb       6.43425777       5.50271123       4.95680156      -0.00001045      -0.00003830       0.00006988
Nb       6.22754056       7.60021748       6.07156652       0.00001168       0.00023386      -0.00009604
Nb       6.06220285       5.57010025       7.31096883      -0.00000123      -0.00019556       0.00002616
4
Lattice="17.83898487112786 0.0 0.0 0.0 17.83898487112786 0.0 0.0 0.0 17.83898487112786" Properties=species:S:1:pos:R:3:forces:R:3 config_type=qcd dft_energy=-27.37450132 gap_energy=-27.12150100932932 relaxed_gap_energy=-27.31484523081916 energy=-27.31484523081916 free_energy=-27.31484523081916 pbc="T T T"
Nb      10.01390073       8.43980776       7.89346410       0.00028549      -0.00040453      -0.00021863
Nb       7.78610485       7.51057698       8.21550161       0.00044980       0.00026604       0.00029212
Nb       9.22159790       8.89386857      10.15092476      -0.00016481      -0.00029582      -0.00006393
Nb       7.74980202       9.92769730       8.50925275      -0.00057049       0.00043431      -0.00000956
5
Lattice="19.16124068822397 0.0 0.0 0.0 19.16124068822397 0.0 0.0 0.0 19.16124068822397" Properties=species:S:1:pos:R:3:forces:R:3 config_type=qcd dft_energy=-35.47227797 gap_energy=-35.67127249872617 relaxed_gap_energy=-35.80141387927084 energy=-35.80141387927084 free_energy=-35.80141387927084 pbc="T T T"
Nb      10.27136376      10.17143974      10.93440763      -0.00006210      -0.00000861      -0.00034455
Nb       8.98802085      10.61675825       8.46974438       0.00008284       0.00000594       0.00005316
Nb       9.48434570       7.98363855       9.34227431      -0.00007615      -0.00041329      -0.00010386
Nb      11.30571777       9.58443678       8.75528362       0.00027678       0.00025124       0.00010835
Nb       7.85365362       9.54682839      10.40139178      -0.00022136       0.00016472       0.00028691
6
Lattice="14.941033 0.0 0.0 0.0 14.941033 0.0 0.0 0.0 14.941033" Properties=species:S:1:pos:R:3:forces:R:3 config_type=qcd dft_energy=-43.86499771 gap_energy=-44.432881383095584 relaxed_gap_energy=-44.55551176813672 energy=-44.55551176813672 free_energy=-44.55551176813672 pbc="T T T"
Nb       6.56714635       8.56559237       6.80333554       0.00051811      -0.00039373       0.00017293
Nb       6.10287697       6.12688870       6.33377064       0.00004672       0.00028497       0.00014852
Nb       6.39234828       6.52839592       8.73982559       0.00035787      -0.00000606      -0.00016460
Nb       9.06265012       8.93468443       6.93260624      -0.00033367      -0.00045710       0.00027550
Nb       8.53760519       6.46337507       6.91610117      -0.00033952       0.00052624       0.00015599
Nb       8.16047210       8.20416251       9.09745981      -0.00024950       0.00004569      -0.00058835
7
Lattice="18.26626349175186 0.0 0.0 0.0 18.26626349175186 0.0 0.0 0.0 18.26626349175186" Properties=species:S:1:pos:R:3:forces:R:3 config_type=qcd dft_energy=-53.18086605 gap_energy=-53.29897604156443 relaxed_gap_energy=-53.488444222123036 energy=-53.488444222123036 free_energy=-53.488444222123036 pbc="T T T"
Nb       9.25562457       9.32788162       7.53412037      -0.00003522       0.00007039       0.00026370
Nb      11.23871679       9.55076980       9.34489274      -0.00004700      -0.00004102       0.00003260
Nb      10.14628811       7.23505100       8.97916795       0.00022667       0.00018063       0.00008422
Nb       7.18822497      10.05635798       9.09703123       0.00019696       0.00001095      -0.00002603
Nb       9.41722508      11.25894016       9.41398469       0.00004328       0.00010096      -0.00002772
Nb       9.01125247       8.93809550      10.73215396       0.00015797       0.00004130      -0.00020374
Nb       7.67459023       7.56482615       8.83057127      -0.00054266      -0.00036320      -0.00012303
8
Lattice="18.87403689189618 0.0 0.0 0.0 18.87403689189618 0.0 0.0 0.0 18.87403689189618" Properties=species:S:1:pos:R:3:forces:R:3 config_type=qcd dft_energy=-62.24858065 gap_energy=-61.473435303307525 relaxed_gap_energy=-61.75210934187001 energy=-61.75210934187001 free_energy=-61.75210934187001 pbc="T T T"
Nb       9.46911172       8.69304585      11.18905354      -0.00020762       0.00000725      -0.00097380
Nb      10.91273302       8.41121892       8.80944755      -0.00030028       0.00021879       0.00092716
Nb      11.26667739      10.37172076      10.54527675      -0.00043159       0.00015670      -0.00075775
Nb       8.79550931      11.13663675      10.00589420       0.00032023      -0.00070813       0.00038716
Nb      10.63361950      10.94594108       8.11754584      -0.00071847      -0.00060286       0.00014433
Nb       8.57058594       9.50737530       7.74333284       0.00062064      -0.00002924       0.00054925
Nb       8.66992400       7.25493456       9.12153155       0.00004277       0.00072930      -0.00017158
Nb       7.17798668       9.17527434       9.96406529       0.00067432       0.00022820      -0.00010477
9
Lattice="18.3514157528589 0.0 0.0 0.0 18.3514157528589 0.0 0.0 0.0 18.3514157528589" Properties=species:S:1:pos:R:3:forces:R:3 config_type=qcd dft_energy=-70.21703699 gap_energy=-69.89627682185701 relaxed_gap_energy=-70.18237983028891 energy=-70.18237983028891 free_energy=-70.18237983028891 pbc="T T T"
Nb      11.30315569       9.33812901      10.38497477      -0.00013449      -0.00042420       0.00016070
Nb       9.62216484       7.38802061      10.22102230      -0.00000440       0.00008550       0.00026200
Nb      10.09010859      11.06713573       8.90388591       0.00010143       0.00077492      -0.00016918
Nb      10.81658141       8.62785925       7.95314211       0.00055888      -0.00021142      -0.00046375
Nb       8.67990277       7.18770552       7.82799429      -0.00007243      -0.00042283      -0.00056641
Nb       8.89545760       9.82723034      11.17172603       0.00018045       0.00030342       0.00076001
Nb       7.21763543       8.45206175       9.53609214      -0.00036404      -0.00018595       0.00026122
Nb       8.41222839       9.69176269       7.26822743      -0.00006773       0.00016836       0.00005956
Nb       7.54413616      11.00146598       9.31430590      -0.00019768      -0.00008779      -0.00030414
10
Lattice="17.295216 0.0 0.0 0.0 17.295216 0.0 0.0 0.0 17.295216" Properties=species:S:1:pos:R:3:forces:R:3 config_type=qcd dft_energy=-79.74711935 gap_energy=-78.29941773063385 relaxed_gap_energy=-78.60788774167739 energy=-78.60788774167739 free_energy=-78.60788774167739 pbc="T T T"
Nb       6.89262337       7.23859752       7.16594363       0.00002038      -0.00000368       0.00005823
Nb       8.80945304       6.40003222       8.68386822       0.00000950      -0.00010099      -0.00009322
Nb       6.70895016       8.03316804       9.61878441      -0.00007927       0.00000090       0.00005118
Nb       9.21859477       8.16399209       6.52177081      -0.00002566      -0.00011139      -0.00007693
Nb      10.81672699       8.04180162       8.56383567       0.00010091       0.00007605      -0.00001467
Nb       9.04217001       7.94935264      10.75376730       0.00000084      -0.00002198       0.00007701
Nb       7.11805936       9.79712538       7.45672325      -0.00007570       0.00003400      -0.00005450
Nb       7.84616508      10.35143559       9.88605852      -0.00002674       0.00008805       0.00001257
Nb       9.62072249      10.44393606       7.69610465       0.00009945       0.00008317       0.00001780
Nb      10.40261474      10.05663884      10.12922357      -0.00002373      -0.00004412       0.00002253
11
Lattice="16.245174 0.0 0.0 0.0 16.245174 0.0 0.0 0.0 16.245174" Properties=species:S:1:pos:R:3:forces:R:3 config_type=qcd dft_energy=-87.46585953 gap_energy=-86.48141294512955 relaxed_gap_energy=-87.40739287797201 energy=-87.40739287797201 free_energy=-87.40739287797201 pbc="T T T"
Nb      10.51522454       9.08564609       8.73436116      -0.00010041       0.00041747      -0.00000328
Nb       5.90859386       7.78489825       6.70461323      -0.00020208       0.00026071       0.00023929
Nb       6.01834098      10.20709321       7.71829978       0.00003117      -0.00002262       0.00003978
Nb       7.09366921       6.22931035       8.46147982      -0.00015706      -0.00028562       0.00024051
Nb       8.32370505       6.37193723       6.14243232       0.00027322      -0.00019940       0.00022325
Nb       9.69291974       6.34677878       8.65472332      -0.00030092      -0.00024598      -0.00006856
Nb      10.64391785       7.50065362       6.64186150       0.00012933       0.00008761      -0.00002840
Nb       8.60574412       8.10226079      10.24988994       0.00004817      -0.00007293      -0.00045538
Nb       8.09968419      10.49911442       9.29636773       0.00029644       0.00005809       0.00000780
Nb       6.13333581       8.42959964       9.48321303      -0.00006861      -0.00023132      -0.00038557
Nb       8.31332165       8.79116464       7.26121519       0.00005075       0.00023400       0.00019057
12
Lattice="18.23437165475889 0.0 0.0 0.0 18.23437165475889 0.0 0.0 0.0 18.23437165475889" Properties=species:S:1:pos:R:3:forces:R:3 config_type=qcd dft_energy=-96.46067407 gap_energy=-94.96865836465936 relaxed_gap_energy=-95.04314807656091 energy=-95.04314807656091 free_energy=-95.04314807656091 pbc="T T T"
Nb       7.65979677      11.23820132       9.25326892       0.00040352      -0.00077378      -0.00033497
Nb      10.11829866      12.05293691      10.31136092      -0.00042897      -0.00066384       0.00009230
Nb       8.39290921      10.49848052      11.64314222      -0.00002853       0.00049900       0.00003051
Nb       7.26094869       8.69531547       9.66526378       0.00019797      -0.00032293      -0.00006552
Nb       8.41529388       9.33571339       7.34222295       0.00000903       0.00030328      -0.00050289
Nb       9.88491903      11.41153060       7.81590074      -0.00011421      -0.00053101       0.00060517
Nb      11.99350892      10.44175207       9.41677848       0.00010854      -0.00011619       0.00004987
Nb       9.29417678       7.17546130       8.81456267      -0.00033336       0.00060744       0.00047863
Nb      10.97821337       8.81934758       7.64264437       0.00007217       0.00039352      -0.00061803
Nb      10.99133838       9.89254378      11.78713447       0.00057812      -0.00001515       0.00037465
Nb      11.33706311       7.83355773      10.25940653      -0.00066256       0.00024573      -0.00012683
Nb       8.98344331       7.96478052      11.48057841       0.00019827       0.00037393       0.00001710
13
Lattice="19.26689053142275 0.0 0.0 0.0 19.26689053142275 0.0 0.0 0.0 19.26689053142275" Properties=species:S:1:pos:R:3:forces:R:3 config_type=qcd dft_energy=-104.77055847 gap_energy=-104.73161562501933 relaxed_gap_energy=-105.19474610340599 energy=-105.19474610340599 free_energy=-105.19474610340599 pbc="T T T"
Nb      10.93965592      12.15415573      10.13851769      -0.00065191      -0.00015805       0.00003312
Nb       8.78130537      10.55581594      11.31366148       0.00024964       0.00009392       0.00000290
Nb       8.79153161      12.30901984       8.96464640       0.00003872      -0.00020979      -0.00012098
Nb      11.33467311       9.98142101      11.77227049       0.00004996       0.00034394      -0.00016379
Nb       6.97060000      10.29584678       9.38654181       0.00045130       0.00042508       0.00006117
Nb      12.67144939      10.39756946       9.58307888       0.00047131       0.00024901       0.00028231
Nb      12.03275417       7.95153265       9.84415651       0.00056515      -0.00055296       0.00016186
Nb      10.00209237       9.72148491       8.97065343      -0.00045595       0.00035779      -0.00034165
Nb       9.94561676       7.87541396      11.47566362      -0.00019042      -0.00000065       0.00019796
Nb       8.13854960      10.72434689       7.10534375       0.00000890      -0.00015017       0.00039361
Nb       7.72795019       8.03538417      10.26361790       0.00008524      -0.00037931      -0.00032037
Nb       7.99039174       8.24271965       7.63440857      -0.00039736       0.00006046      -0.00014043
Nb       9.90821823       6.99007746       8.78222791      -0.00022460      -0.00007927      -0.00004570
13
Lattice="17.843863 0.0 0.0 0.0 17.843863 0.0 0.0 0.0 17.843863" Properties=species:S:1:pos:R:3:forces:R:3 config_type=qcd dft_energy=-104.72262227 gap_energy=-103.93810228289566 relaxed_gap_energy=-104.40540496969408 energy=-104.40540496969408 free_energy=-104.40540496969408 pbc="T T T"
Nb       9.25557465       9.11345787       9.42040702       0.00028285       0.00033037      -0.00014264
Nb       7.83848954       9.98438701      11.64176015       0.00009195       0.00021525       0.00017585
Nb       8.34840946       7.37371433      11.29007591      -0.00006001      -0.00023411       0.00048382
Nb       8.89409769      10.29708500       6.69675114       0.00037463      -0.00052985       0.00045204
Nb       8.79068905       7.44256426       6.93511516       0.00037973      -0.00058952       0.00031646
Nb      10.66114525      11.13924262       8.29524268       0.00009102      -0.00006906      -0.00020755
Nb      10.51022797       6.90806363       9.46350591      -0.00007861       0.00011388      -0.00030433
Nb       8.03058679      11.33593050       9.42177674       0.00026989      -0.00009493       0.00023267
Nb       7.51055780       6.72068354       8.99698895       0.00033461       0.00001701      -0.00035164
Nb      12.02125442       9.01675567       9.21391366       0.00031292       0.00002879      -0.00010594
Nb      10.99550891       8.64882458       6.97661893      -0.00038195       0.00043924      -0.00007524
Nb       6.29276170       8.87595205      10.03711310      -0.00093088      -0.00011319      -0.00009058
Nb       6.83580628       9.12844845       7.59584016      -0.00068614       0.00048611      -0.00038292
14
Lattice="17.653206 0.0 0.0 0.0 17.653206 0.0 0.0 0.0 17.653206" Properties=species:S:1:pos:R:3:forces:R:3 config_type=qcd dft_energy=-114.24942842 gap_energy=-113.89661820317832 relaxed_gap_energy=-114.10172972865811 energy=-114.10172972865811 free_energy=-114.10172972865811 pbc="T T T"
Nb      11.25600016       7.41376445       9.76651037       0.00020584      -0.00010705       0.00050123
Nb       9.05158021       9.01450725       9.26429689       0.00004285       0.00050282      -0.00012061
Nb       9.31131503       6.08561210       8.58654904       0.00012526       0.00049967      -0.00023569
Nb       7.65389948      11.30498167       9.94717189       0.00017764      -0.00053088      -0.00056901
Nb       7.46888283      10.76006884       7.35123497       0.00029283       0.00016563      -0.00010473
Nb       9.86051644      10.11531808       6.57379653      -0.00002201       0.00008783      -0.00016078
Nb       7.90672398       8.05812554       7.03711393       0.00018797      -0.00015126      -0.00011558
Nb       6.94353063       6.83144673       9.30811447       0.00015046      -0.00019202       0.00001249
Nb       6.06461806       9.24002356       8.90044220      -0.00031664       0.00002842       0.00048812
Nb      10.63760533       7.69389737       7.03897765      -0.00042295      -0.00009335       0.00008172
Nb       7.14686524       8.83623357      11.26783039       0.00015995      -0.00005104       0.00031740
Nb      11.69205367       9.54902113       8.62531508      -0.00016752      -0.00010371      -0.00006288
Nb       8.81780542       7.03261615      11.18339233      -0.00032883       0.00009180      -0.00028247
Nb       9.76104552      11.63682557       8.72169626      -0.00008486      -0.00014686       0.00025079
15
Lattice="18.431543 0.0 0.0 0.0 18.431543 0.0 0.0 0.0 18.431543" Properties=species:S:1:pos:R:3:forces:R:3 config_type=qcd dft_energy=-124.25772638 gap_energy=-122.53385977204893 relaxed_gap_energy=-122.98619771229471 energy=-122.98619771229471 free_energy=-122.98619771229471 pbc="T T T"
Nb       9.21576316       9.21576566       9.21575874       0.00026998       0.00019226       0.00041279
Nb      11.91739030       8.93639743       9.22691322      -0.00007149       0.00004047       0.00005709
Nb       6.51415814       9.49515273       9.20463111      -0.00009187       0.00000496      -0.00000556
Nb      10.37976982      11.66974887       9.20635799      -0.00003672      -0.00011046       0.00005849
Nb       7.75892599      11.80553891       9.19630059      -0.00003141       0.00000371       0.00002005
Nb      10.67262705       6.62600991       9.23524500       0.00004694      -0.00001404       0.00001183
Nb       8.05178399       6.76179660       9.22517732      -0.00003834      -0.00008143       0.00000285
Nb       8.43905922      10.59468068      11.42310428       0.00005098      -0.00007142      -0.00010604
Nb      11.03955637      10.25755027      11.31771395      -0.00002980      -0.00007651      -0.00014473
Nb       9.97669248       7.86132504      11.44365457      -0.00000365       0.00010013      -0.00008931
Nb       7.37702280       8.19717125      11.31605419       0.00000090       0.00005338      -0.00000274
Nb       8.45484968      10.57021427       6.98789449      -0.00003001       0.00005908      -0.00006735
Nb      11.05451513      10.23436117       7.11548115       0.00005719      -0.00000900       0.00002190
Nb       9.99247234       7.83685888       7.00844574       0.00007821      -0.00004172      -0.00007652
Nb       7.39198604       8.17400082       7.11384015      -0.00017092      -0.00004940      -0.00009275
16
Lattice="20.65094199537547 0.0 0.0 0.0 20.65094199537547 0.0 0.0 0.0 20.65094199537547" Properties=species:S:1:pos:R:3:forces:R:3 config_type=qcd dft_energy=-132.78402026 gap_energy=-131.6745407936782 relaxed_gap_energy=-132.21997084148694 energy=-132.21997084148694 free_energy=-132.21997084148694 pbc="T T T"
Nb      10.32551157      10.32542434      10.32558485       0.00044213       0.00032222       0.00007197
Nb      12.50645383       9.18418284      11.57002327      -0.00043477      -0.00014827      -0.00044505
Nb       9.21810777      12.63852637      11.34182752      -0.00077206       0.00047189      -0.00038266
Nb       9.25439871       9.15464586       8.06791063      -0.00038047      -0.00034741      -0.00027865
Nb      12.15820140       8.78435070       8.63114040       0.00036000      -0.00005521       0.00044735
Nb      12.12294560      12.13431698      11.77714061       0.00067166       0.00003699      -0.00013691
Nb      13.12453849      10.95541886       9.68725055      -0.00042302       0.00013729       0.00020366
Nb      11.16304880      10.94015796       7.57473387      -0.00008018       0.00009611       0.00022411
Nb      11.13888808      13.04117278       9.54852375       0.00030294       0.00016708      -0.00033701
Nb       8.99583900      12.10578939       8.41123287      -0.00015259       0.00048001       0.00039207
Nb      10.58765012      10.76804475      13.21445453       0.00041315      -0.00040370      -0.00000420
Nb      10.62380216       7.41879858      10.06773304       0.00000833      -0.00011500       0.00034402
Nb       7.46167399      10.74075011       9.84766201       0.00046697       0.00002135       0.00017195
Nb      10.15869310       8.31591506      12.46384068      -0.00011746      -0.00011992      -0.00004989
Nb       8.17261690      10.40097122      12.32565832      -0.00039057      -0.00026057      -0.00037311
Nb       8.19516642       8.29907018      10.35281907       0.00008592      -0.00028288       0.00015235
17
Lattice="21.91808336754338 0.0 0.0 0.0 21.91808336754338 0.0 0.0 0.0 21.91808336754338" Properties=species:S:1:pos:R:3:forces:R:3 config_type=qcd dft_energy=-139.28725191 gap_energy=-139.3476418733479 relaxed_gap_energy=-141.0744874560862 energy=-141.0744874560862 free_energy=-141.0744874560862 pbc="T T T"
Nb      10.95905014      10.95905337      10.95907314      -0.00021463       0.00015972      -0.00054549
Nb      11.20759870      11.18225752      13.99197781       0.00031433       0.00068546       0.00016333
Nb      11.96931498       9.00351553      13.07217645       0.00001185      -0.00054357      -0.00006556
Nb       9.08648507       9.60990261      12.50402794      -0.00003335       0.00039860      -0.00009204
Nb       9.11519817      12.27361558      13.03676086      -0.00003192       0.00000608      -0.00048625
Nb      11.83261575      13.32565246      12.59975141       0.00007638      -0.00085263      -0.00022677
Nb      13.47428536      11.42370605      12.04134813      -0.00061521       0.00047730      -0.00017545
Nb      13.29681431       8.96511054      10.89992629       0.00013997      -0.00029322       0.00030288
Nb      10.52658247       7.98556570      11.12153102       0.00014683      -0.00071445       0.00013862
Nb       7.99735155      11.46643860      10.79674348       0.00033189       0.00023948      -0.00024683
Nb       9.78494934      13.79847822      11.01805329      -0.00009891       0.00011407       0.00009005
Nb      13.47959510      11.05860380       9.31820137       0.00005762       0.00030537      -0.00023421
Nb      12.17801080      13.20755995       9.87652775       0.00005633      -0.00025271       0.00052816
Nb       9.41118565      12.52398202       8.84591197      -0.00050193      -0.00031213       0.00052085
Nb       9.09725369       9.59484764       9.41420970       0.00019848       0.00044937       0.00029009
Nb      11.63946345       8.79914441       8.88141819       0.00002289      -0.00020295       0.00002169
Nb      11.24795411      11.12627463       7.92606983       0.00013937       0.00033620       0.00001693
18
Lattice="22.11910483478451 0.0 0.0 0.0 22.11910483478451 0.0 0.0 0.0 22.11910483478451" Properties=species:S:1:pos:R:3:forces:R:3 config_type=qcd dft_energy=-148.29180364 gap_energy=-146.63808102395967 relaxed_gap_energy=-149.6147398300186 energy=-149.6147398300186 free_energy=-149.6147398300186 pbc="T T T"
Nb      11.04031732      11.05957795      11.05955214      -0.00022547      -0.00032414       0.00000509
Nb      10.80365329      11.05957167      14.08097382       0.00040142       0.00006774      -0.00010561
Nb      11.85054263       8.89951432      13.18142356      -0.00002424       0.00038842       0.00014770
Nb       9.12646186       9.58434258      12.60158878      -0.00007764      -0.00021219       0.00057024
Nb       9.12649525      12.53483319      12.60158185       0.00006654       0.00027334       0.00041764
Nb      11.85059230      13.21960333      13.18141833      -0.00004299      -0.00036406      -0.00000386
Nb      13.47575770      11.05949484      12.59169884       0.00032247       0.00006382      -0.00047806
Nb      13.36116364       8.92227379      11.05955914      -0.00050973       0.00068905      -0.00001773
Nb      10.58307028       8.02767682      11.05956657      -0.00021862      -0.00015912      -0.00000826
Nb       7.67573223      11.05959000      11.05951792       0.00053800       0.00010783      -0.00000209
Nb      10.58317110      14.09147171      11.05953492      -0.00020437      -0.00012352      -0.00001340
Nb      13.36126806      13.19672742      11.05959123      -0.00069390      -0.00062732      -0.00001604
Nb      13.47578151      11.05950708       9.52745137       0.00032638       0.00007061       0.00049210
Nb      11.85065120      13.21958484       8.93769363      -0.00003516      -0.00038957       0.00003520
Nb       9.12652923      12.53481609       9.51746848       0.00008436       0.00027364      -0.00040798
Nb       9.12648513       9.58432377       9.51749050      -0.00006808      -0.00021403      -0.00055888
Nb      11.85055414       8.89948390       8.93770370      -0.00001665       0.00040717      -0.00011953
Nb      10.80371661      11.05955023       8.03812872       0.00037769       0.00007233       0.00006348
19
Lattice="21.99260868447286 0.0 0.0 0.0 21.99260868447286 0.0 0.0 0.0 21.99260868447286" Properties=species:S:1:pos:R:3:forces:R:3 config_type=qcd dft_energy=-156.06060082 gap_energy=-155.0871532945118 relaxed_gap_energy=-157.8084719019305 energy=-157.8084719019305 free_energy=-157.8084719019305 pbc="T T T"
Nb      11.16185326      10.74861062      10.99641895      -0.00010295       0.00044033       0.00073480
Nb      10.91307959      10.86429842      14.03322834      -0.00006350       0.00010675      -0.00054907
Nb      12.04741211       8.62933520      13.09261688      -0.00032049      -0.00009555      -0.00026527
Nb       9.31873891       9.30697802      12.55818891       0.00041039       0.00003843       0.00029707
Nb       9.30099743      12.33012657      12.64223605       0.00040026       0.00039896       0.00034310
Nb      11.84429671      13.18382171      12.33697792      -0.00000573      -0.00025216      -0.00012307
Nb      13.38750435      10.90930889      13.20697926      -0.00028735       0.00020001      -0.00030598
Nb      13.60330009       9.11998298      10.99838301      -0.00011159      -0.00006433       0.00011835
Nb      10.83430504       7.76138149      10.99782387      -0.00038407      -0.00026252      -0.00008908
Nb       7.85332535      10.77243647      10.99440461      -0.00010432      -0.00044013       0.00019212
Nb       7.75528807      13.63462143      10.99361503      -0.00003779      -0.00004881      -0.00006294
Nb      10.02579914      14.60182048      10.99472160      -0.00020658      -0.00032169      -0.00016245
Nb      14.05958600      11.85305584      10.99727137       0.00040651      -0.00008622       0.00031714
Nb      13.38950861      10.90676799       8.78791736       0.00048109       0.00075086       0.00024269
Nb      11.84547750      13.18290946       9.65559079       0.00012993      -0.00021586      -0.00024669
Nb       9.30278138      12.32912705       9.34731534       0.00006468       0.00035610      -0.00003987
Nb       9.32068688       9.30590104       9.43347067      -0.00003278      -0.00031977       0.00002364
Nb      12.04928928       8.62708205       8.90331160      -0.00002750      -0.00036423      -0.00023636
Nb      10.91655282      10.86221679       7.95931093      -0.00020820       0.00017983      -0.00018813
20
Lattice="22.80145996865027 0.0 0.0 0.0 22.80145996865027 0.0 0.0 0.0 22.80145996865027" Properties=species:S:1:pos:R:3:forces:R:3 config_type=qcd dft_energy=-164.45840635 gap_energy=-162.63023121068758 relaxed_gap_energy=-163.83951970263962 energy=-163.83951970263962 free_energy=-163.83951970263962 pbc="T T T"
Nb      11.48942453      11.38464242      12.72535358       0.00050916       0.00031905      -0.00002637
Nb      11.66525502      11.35033240      15.22646142       0.00006808      -0.00018489       0.00020501
Nb      12.12765083       9.07412663      13.97411276      -0.00001319      -0.00007252      -0.00007085
Nb       9.39871168       9.82195087      13.77511869      -0.00016821      -0.00004986       0.00000385
Nb       9.16298493      12.38652363      13.59763106      -0.00018331       0.00010831      -0.00013697
Nb      12.88707215      13.44052045      13.79972650      -0.00018044       0.00009410       0.00002627
Nb      14.23596966      11.25427427      13.70486193      -0.00005598      -0.00013866      -0.00031976
Nb      10.81350500       8.82655953      11.57587928       0.00029286      -0.00031836      -0.00030057
Nb       8.85718220      10.94159147      11.17531400      -0.00001085       0.00006931       0.00015460
Nb      10.98132683      13.72507263      11.49265947      -0.00001434      -0.00018844      -0.00009842
Nb      13.86045949      12.64330717      11.36344903      -0.00012826       0.00028858       0.00017840
Nb      13.67834944       9.76456333      11.53564039       0.00007147      -0.00017942       0.00017019
Nb      11.46426785      11.31547971      10.19971894      -0.00083607       0.00048606      -0.00024352
Nb      11.50357659      11.60031191       7.51860469      -0.00016897      -0.00036659       0.00030882
Nb       8.24157590      13.52424267      11.43495239      -0.00022562       0.00015726      -0.00003913
Nb       9.62149528      10.31066473       8.48828867       0.00020398       0.00015386       0.00025663
Nb      12.34232728       9.05506105       9.11476458      -0.00012468      -0.00005114       0.00009954
Nb       9.35881311      13.00766285       9.19326611       0.00052741      -0.00007032       0.00016510
Nb      12.30335591      13.57068227       9.02573732       0.00009358      -0.00008194      -0.00006871
Nb      14.02129599      11.01702971       9.09305883       0.00034336       0.00002562      -0.00026414
21
Lattice="22.87536289713918 0.0 0.0 0.0 22.87536289713918 0.0 0.0 0.0 22.87536289713918" Properties=species:S:1:pos:R:3:forces:R:3 config_type=qcd dft_energy=-172.96846447 gap_energy=-172.1329256030212 relaxed_gap_energy=-173.66752925260585 energy=-173.66752925260585 free_energy=-173.66752925260585 pbc="T T T"
Nb      11.44911342      11.45133864      13.27176081       0.00062764      -0.00022352       0.00029893
Nb      11.98184804       9.94612750      15.54202297       0.00019015      -0.00028040      -0.00000913
Nb      12.94614673       8.77363743      13.60044018       0.00021913       0.00052216       0.00013826
Nb      10.19500914       9.06313671      13.95478989       0.00029205       0.00024644      -0.00041461
Nb       9.74896115      13.63404729      13.38229633      -0.00014904       0.00010367      -0.00020240
Nb      12.57782087      13.96569139      13.70000990      -0.00028528      -0.00009642      -0.00003052
Nb      13.78338907      11.68197128      14.24870707      -0.00043853      -0.00000971      -0.00012228