3
Lattice="30.0 0.0 0.0 0.0 30.0 0.0 0.0 0.0 30.0" Properties=species:S:1:pos:R:3:forces:R:3 config_type=qcd dft_energy=-7.61664124 gap_energy=-7.740695754351577 relaxed_gap_energy=-7.774656360457541 energy=-7.774656360457541 free_energy=-7.774656360457541 pbc="T T T"
Ni       9.32393770       9.06793526       8.09947265       0.00002660       0.00002928       0.00001928
Ni       7.72036816       8.26640668       9.46124956      -0.00000003       0.00002469       0.00006476
Ni       7.84530877       7.55527271       7.32889242      -0.00002657      -0.00005398      -0.00008404
4
Lattice="30.0 0.0 0.0 0.0 30.0 0.0 0.0 0.0 30.0" Properties=species:S:1:pos:R:3:forces:R:3 config_type=qcd dft_energy=-11.38677355 gap_energy=-11.388282896276426 relaxed_gap_energy=-11.490016947850084 energy=-11.490016947850084 free_energy=-11.490016947850084 pbc="T T T"
Ni       5.11157929       6.47822788       6.65362105      -0.00064937      -0.00028124       0.00012793
Ni       4.59409884       4.52312494       5.50395376      -0.00075240      -0.00005306       0.00061417
Ni       6.80288131       4.99622156       6.05892557       0.00066483       0.00007650      -0.00037459
Ni       5.72172969       6.24538406       4.42109725       0.00073694       0.00025780      -0.00036751
5
Lattice="30.0 0.0 0.0 0.0 30.0 0.0 0.0 0.0 30.0" Properties=species:S:1:pos:R:3:forces:R:3 config_type=qcd dft_energy=-15.50902579 gap_energy=-15.353556241205291 relaxed_gap_energy=-15.49174186527983 energy=-15.49174186527983 free_energy=-15.49174186527983 pbc="T T T"
Ni       7.46112449       9.04455609       8.33652335      -0.00010435       0.00004314      -0.00041867
Ni       9.15906206       7.47559743       7.69700204      -0.00013656      -0.00012972       0.00008643
Ni       7.85796490       8.55255890       6.09848223       0.00010763       0.00052589      -0.00045666
Ni       6.84330502       6.92075376       7.40815449       0.00008070      -0.00004234       0.00041042
Ni       7.78423515       7.07463304       9.52928280       0.00005258      -0.00039696       0.00037848
5
Lattice="15.194574 0.0 0.0 0.0 15.194574 0.0 0.0 0.0 15.194574" Properties=species:S:1:pos:R:3:forces:R:3 config_type=qcd dft_energy=-15.48220855 gap_energy=-15.293688621220918 relaxed_gap_energy=-15.387385942741924 energy=-15.387385942741924 free_energy=-15.387385942741924 pbc="T T T"
Ni       7.26016492       7.84354279       9.19860302      -0.00010580      -0.00020069       0.00063842
Ni       7.72788725       8.00933238       5.99988310       0.00028957      -0.00003024      -0.00045315
Ni       5.96514155       7.44486350       7.35072024      -0.00003123      -0.00009756       0.00001606
Ni       8.00833119       6.28699199       7.58945951      -0.00017658       0.00033756       0.00002838
Ni       9.02491011       8.40170434       7.84776913       0.00002404      -0.00000908      -0.00022970
6
Lattice="16.040079 0.0 0.0 0.0 16.040079 0.0 0.0 0.0 16.040079" Properties=species:S:1:pos:R:3:forces:R:3 config_type=qcd dft_energy=-19.97005107 gap_energy=-19.91144668843603 relaxed_gap_energy=-19.9606545806908 energy=-19.9606545806908 free_energy=-19.9606545806908 pbc="T T T"
Ni       7.89555410       8.54015044       9.58603045       0.00027581      -0.00028511      -0.00051304
Ni       8.55154838       9.51919562       7.56439082       0.00050220       0.00053538      -0.00021794
Ni       6.45804026       8.48887081       7.74023603      -0.00016321      -0.00030263      -0.00021269
Ni       7.48853426       6.52088836       8.47568761      -0.00053026      -0.00062713       0.00019562
Ni       9.58203798       7.55120872       8.29985037       0.00017558       0.00031795       0.00013511
Ni       8.14452200       7.49992303       6.45404171      -0.00026012       0.00036153       0.00061295
7
Lattice="30.0 0.0 0.0 0.0 30.0 0.0 0.0 0.0 30.0" Properties=species:S:1:pos:R:3:forces:R:3 config_type=qcd dft_energy=-24.15319909 gap_energy=-24.11528218104684 relaxed_gap_energy=-24.1284964429338 energy=-24.1284964429338 free_energy=-24.1284964429338 pbc="T T T"
Ni       8.53893099       7.75399349       7.14242044      -0.00074503       0.00058190       0.00025487
Ni       7.17763920       9.49499164       6.45649244       0.00035658      -0.00033850       0.00036168
Ni       7.91762494       6.46302808       8.99680558       0.00020893       0.00022413      -0.00023992
Ni       7.81994877       5.54246322       6.85434156      -0.00053733       0.00020534       0.00026330
Ni       6.55953998       8.24122023       8.30044618       0.00050088      -0.00029062      -0.00023023
Ni       6.46130135       7.31654701       6.14850582       0.00003889      -0.00051732      -0.00005372
Ni       5.84939529       6.02736963       8.00723659       0.00017708       0.00013506      -0.00035599
8
Lattice="30.0 0.0 0.0 0.0 30.0 0.0 0.0 0.0 30.0" Properties=species:S:1:pos:R:3:forces:R:3 config_type=qcd dft_energy=-28.3740585 gap_energy=-28.315624157393763 relaxed_gap_energy=-28.403058474298213 energy=-28.403058474298213 free_energy=-28.403058474298213 pbc="T T T"
Ni      10.37298292       8.29409767       9.96826790       0.00017632      -0.00042472      -0.00022300
Ni      10.20622820       9.80423970       8.20082413       0.00007611      -0.00075324      -0.00047372
Ni      11.81298356      10.11936720       9.86711175       0.00068112       0.00020887       0.00020158
Ni       8.49752158       8.26924998       8.57562517       0.00004871       0.00060867       0.00016990
Ni       8.23891247       8.60014971      10.86761164      -0.00023077       0.00072377      -0.00009769
Ni       9.87205538      10.23189905      11.16244900      -0.00019101      -0.00062841       0.00032680
Ni      10.23131954      11.77858037       9.44910580      -0.00036601       0.00089924      -0.00016335
Ni       8.32900580      10.43792521       9.42798767      -0.00019447      -0.00063419       0.00025948
9
Lattice="30.0 0.0 0.0 0.0 30.0 0.0 0.0 0.0 30.0" Properties=species:S:1:pos:R:3:forces:R:3 config_type=qcd dft_energy=-32.75241706 gap_energy=-32.48271870299304 relaxed_gap_energy=-32.56861468399093 energy=-32.56861468399093 free_energy=-32.56861468399093 pbc="T T T"
Ni       7.47232010       9.92553465       8.45316155      -0.00055333       0.00022885      -0.00060528
Ni       6.89794834       7.68959452       8.81491247      -0.00039876      -0.00004467      -0.00006935
Ni       6.96248993       8.54036843       6.62952402      -0.00046226       0.00013929       0.00064900
Ni       8.57962276       7.02993251       7.40845218      -0.00004914      -0.00046111      -0.00059809
Ni       8.69610104       6.45614707       9.68014795       0.00011896       0.00022417       0.00007923
Ni       9.69932968      10.36132972       9.04803876       0.00007173      -0.00060709       0.00020280
Ni       8.46513373       8.73217623      10.19969400       0.00014423      -0.00011155       0.00026086
Ni       9.15390765       9.26599518       7.04653232       0.00069731       0.00008523      -0.00028797
Ni      10.14669976       8.07247468       8.79308974       0.00043127       0.00054688       0.00036881
10
Lattice="30.0 0.0 0.0 0.0 30.0 0.0 0.0 0.0 30.0" Properties=species:S:1:pos:R:3:forces:R:3 config_type=qcd dft_energy=-37.23699172 gap_energy=-36.871114952428506 relaxed_gap_energy=-36.984805813076086 energy=-36.984805813076086 free_energy=-36.984805813076086 pbc="T T T"
Ni       8.47995639      11.59526277       8.88603884      -0.00014762      -0.00024651       0.00014408
Ni       7.96832750       9.62406906       9.99453750      -0.00052161       0.00005418      -0.00030942
Ni       8.00329044       9.72286509       7.60434371       0.00049959       0.00009674       0.00043960
Ni       7.50677711       7.59987989      11.02685114      -0.00022096       0.00010941      -0.00000322
Ni       7.50110726       7.66106920       8.70906309       0.00043662       0.00027277      -0.00009035
Ni       7.57504411       7.79148718       6.39523426      -0.00078077      -0.00034684      -0.00010321
Ni      10.04636240       9.88648868       8.83853411       0.00001997       0.00059453      -0.00033302
Ni       9.54416493       7.82474164       9.94326762      -0.00010353      -0.00049369       0.00011607
Ni       9.57929357       7.92348759       7.55313711       0.00044763       0.00025612       0.00037324
Ni      11.53362628       8.10859889       8.78694264       0.00037066      -0.00029672      -0.00023375
11
Lattice="30.0 0.0 0.0 0.0 30.0 0.0 0.0 0.0 30.0" Properties=species:S:1:pos:R:3:forces:R:3 config_type=qcd dft_energy=-41.4498917 gap_energy=-41.22853806996158 relaxed_gap_energy=-41.295734789206925 energy=-41.295734789206925 free_energy=-41.295734789206925 pbc="T T T"
Ni       7.95927030      10.30063107       8.57915342       0.00017685      -0.00002002       0.00071431
Ni       6.08808164       8.91952220       8.34458917      -0.00027087      -0.00007518       0.00015519
Ni       9.98713189       9.09966052       8.74509710      -0.00036473      -0.00033530      -0.00076378
Ni       6.89367731       6.71785886       8.35388364      -0.00027911       0.00010982       0.00013046
Ni       9.21364674       6.87232384       8.59366429       0.00010113       0.00006961       0.00034655
Ni       8.01678684       8.37227307       7.21543762       0.00062908      -0.00006824      -0.00043533
Ni       7.75549229       8.28756310       9.79891656      -0.00009314      -0.00008664       0.00012642
Ni       9.03593911      10.00776754      10.63323375      -0.00022134       0.00005772      -0.00019974
Ni       9.84148764       7.80612023      10.64247158       0.00001686      -0.00003123       0.00024575
Ni       9.42704478      10.13451420       6.76767504       0.00028988      -0.00008345      -0.00024458
Ni      10.23255645       7.93288037       6.77699281       0.00001540       0.00046292      -0.00007524
12
Lattice="19.97011088542018 0.0 0.0 0.0 19.97011088542018 0.0 0.0 0.0 19.97011088542018" Properties=species:S:1:pos:R:3:forces:R:3 config_type=qcd dft_energy=-45.80675575 gap_energy=-45.73753586443087 relaxed_gap_energy=-45.7640399072462 energy=-45.7640399072462 free_energy=-45.7640399072462 pbc="T T T"
Ni      11.74356286       9.75604176      12.04604307       0.00017691      -0.00034589      -0.00012751
Ni       9.53572037       9.02407675      12.05919186      -0.00005266      -0.00018986      -0.00040713
Ni       7.86804466      10.24668853      10.92168409       0.00016711      -0.00007195       0.00002475
Ni      10.80624306       8.82819284      10.09429285      -0.00043680       0.00062521       0.00009399
Ni       8.55944847       8.14586036      10.09817175       0.00074192       0.00047920      -0.00018204
Ni       9.06478185      10.10496611       8.90653402       0.00043456      -0.00056980       0.00014707
Ni       8.41591416      12.19564863       9.77630753       0.00001158      -0.00008397       0.00003534
Ni       9.79573904       8.00353927       8.13292541      -0.00011876       0.00051338       0.00028431
Ni      11.22076795       9.83830038       8.01545154      -0.00042189      -0.00025163       0.00077487
Ni      10.08418025      11.02194564      10.95434461      -0.00025108       0.00015536      -0.00046787
Ni      12.19698336      10.71636886       9.97655975      -0.00040076      -0.00016339      -0.00011854
Ni      10.52927931      11.93903620       8.83915882       0.00014989      -0.00009665      -0.00005724
13
Lattice="16.718133 0.0 0.0 0.0 16.718133 0.0 0.0 0.0 16.718133" Properties=species:S:1:pos:R:3:forces:R:3 config_type=qcd dft_energy=-50.07002813 gap_energy=-50.032599605746036 relaxed_gap_energy=-50.12962530221602 energy=-50.12962530221602 free_energy=-50.12962530221602 pbc="T T T"
Ni       8.36045791      10.60333859       6.92254651       0.00020752       0.00006761       0.00021244
Ni       8.28048807       8.29299574       6.96757697      -0.00036174      -0.00056186       0.00023238
Ni       8.45612667       6.06182842       7.62790637      -0.00077076       0.00028834       0.00022624
Ni      10.36818753       9.32245569       7.00203345       0.00017743       0.00028965      -0.00027573
Ni      10.12256035       7.54451730       8.57602115       0.00005389       0.00003074      -0.00052566
Ni       6.78985765       9.52228812       8.28844931      -0.00010095      -0.00032005       0.00043375
Ni       6.35042280       7.22573743       7.65034945       0.00079147      -0.00023318      -0.00015720
Ni       9.09567471       9.68097109       8.91390395       0.00009830       0.00035186       0.00014773
Ni       7.48438700       9.43156936      10.57061000       0.00012681       0.00008997       0.00039444
Ni       5.73213017       8.08316092       9.75620301      -0.00017696       0.00017093      -0.00029041
Ni       9.58864530       8.32389513      10.72280228       0.00000329       0.00032065      -0.00003101
Ni       7.91747904       7.49164812       9.35875399      -0.00024608      -0.00032475      -0.00064898
Ni      10.12144731       7.08345857       6.31070804       0.00019779      -0.00016992       0.00028201
14
Lattice="30.0 0.0 0.0 0.0 30.0 0.0 0.0 0.0 30.0" Properties=species:S:1:pos:R:3:forces:R:3 config_type=qcd dft_energy=-54.50154624 gap_energy=-54.43660359721721 relaxed_gap_energy=-54.58426673645587 energy=-54.58426673645587 free_energy=-54.58426673645587 pbc="T T T"
Ni      10.35797173      11.28451184       7.34791463      -0.00039676       0.00011045      -0.00009867
Ni       9.83334585       7.45114775       7.39922019      -0.00011262       0.00016660       0.00014343
Ni      10.87944541       9.27322631       8.31679923       0.00027148       0.00012095      -0.00004858
Ni      11.25849667      11.29779787       9.53701777      -0.00009682       0.00013905       0.00049832
Ni       9.00044168      10.81500763       9.13011055       0.00000032      -0.00007982      -0.00051389
Ni      10.45125562       9.36253968      10.60035454       0.00034767       0.00004215      -0.00034527
Ni       8.75596714       9.54833846       7.16173580      -0.00036825      -0.00023822      -0.00050776
Ni       9.58675964      11.42598206      11.26913508       0.00040815      -0.00007369       0.00057119
Ni      10.70535906       7.25421511       9.59110849      -0.00000154      -0.00030085       0.00068542
Ni       8.65837457       8.31461232       9.16368352       0.00014666       0.00019493      -0.00056198
Ni       6.96875754       9.81398095       8.74543925      -0.00002095      -0.00005123      -0.00016392
Ni       9.06724497       7.62529563      11.32026828      -0.00018008      -0.00015221       0.00027815
Ni       9.40589337       9.53317165      12.65613513       0.00061441      -0.00015251       0.00054821
Ni       7.90263443       9.71520534      10.91347837      -0.00061167       0.00027439      -0.00048466
15
Lattice="17.959973 0.0 0.0 0.0 17.959973 0.0 0.0 0.0 17.959973" Properties=species:S:1:pos:R:3:forces:R:3 config_type=qcd dft_energy=-59.03853665 gap_energy=-58.88086296468427 relaxed_gap_energy=-59.014417799923365 energy=-59.014417799923365 free_energy=-59.014417799923365 pbc="T T T"
Ni       6.81346397       7.61390164      10.08166779       0.00000266       0.00021355       0.00029840
Ni       8.79360782       9.66844230       7.51305518       0.00033711      -0.00004824       0.00000555
Ni       8.87636438       8.21134324      11.17936426      -0.00010510      -0.00011411      -0.00020495
Ni      10.94490445      10.53228882       7.75389348      -0.00036265      -0.00014365       0.00004295
Ni      10.84140801       8.12512908       7.86510611       0.00016567       0.00005451       0.00013982
Ni       8.87492856       7.52353567       6.60478438      -0.00031950      -0.00007218       0.00029698
Ni      10.79115814       7.30728110      10.09738467      -0.00068488       0.00057759      -0.00041207
Ni       8.88337816      10.62266728      11.23072845      -0.00004464       0.00045017       0.00001060
Ni      10.16511029       9.49614051       9.66927176       0.00011467      -0.00068545      -0.00035601
Ni       8.80998407       7.52627671       8.91698049       0.00037579       0.00031598       0.00024417
Ni       9.11181417      11.47692564       8.99321000       0.00022555      -0.00007386       0.00012960
Ni       6.90858803       8.27440591       7.77021164      -0.00005728      -0.00051105      -0.00049331
Ni       7.61978200       9.71989282       9.49273443       0.00018253       0.00019914       0.00060045
Ni      10.33865935       9.22591346       5.88842133       0.00002379       0.00024168       0.00019006
Ni       6.92664610       9.37565332      11.64298353       0.00014628      -0.00040409      -0.00049224
16
Lattice="17.46127 0.0 0.0 0.0 17.46127 0.0 0.0 0.0 17.46127" Properties=species:S:1:pos:R:3:forces:R:3 config_type=qcd dft_energy=-63.44902747 gap_energy=-63.524563877380984 relaxed_gap_energy=-63.595680290355446 energy=-63.595680290355446 free_energy=-63.595680290355446 pbc="T T T"
Ni       9.07441407       8.44844672      10.53548533      -0.00013976       0.00003100      -0.00002002
Ni       7.18700968       7.24049261      11.05942563      -0.00000761       0.00011063      -0.00008599
Ni       7.17234327       9.62119556      11.18214557      -0.00004696      -0.00009855       0.00068714
Ni       9.32654743      10.64212235      11.18373029       0.00009267      -0.00009665      -0.00014453
Ni       8.40043002       6.56360338       9.16179350       0.00008507       0.00026132      -0.00003194
Ni       6.78719224       8.48205618       9.15438537       0.00018249       0.00017484      -0.00016468
Ni       8.09788409      10.56584203       9.23052434      -0.00020403      -0.00005284      -0.00001351
Ni      10.52471455       9.94084476       9.28522823      -0.00008990      -0.00008921       0.00014876
Ni      10.71427893       7.46772951       9.14547332       0.00039928      -0.00021398       0.00059493
Ni       8.92317491       8.62989214       8.17360425      -0.00049283       0.00011467      -0.00012315
Ni       8.93143886       8.70912243       5.86431492      -0.00025150       0.00017506      -0.00054212
Ni       7.30923468       7.34190300       7.10275723      -0.00011114      -0.00035331       0.00019676
Ni       9.67425231       6.72140815       7.08389842       0.00018514      -0.00034049      -0.00016254
Ni       7.14539667       9.78584823       7.14088211      -0.00015873       0.00011415      -0.00021875
Ni       9.41851969      10.69529127       7.22536572       0.00026682       0.00026574       0.00001715
Ni      11.00332860       8.83436171       7.16114578       0.00029099      -0.00000240      -0.00013753
17
Lattice="22.24936284548551 0.0 0.0 0.0 22.24936284548551 0.0 0.0 0.0 22.24936284548551" Properties=species:S:1:pos:R:3:forces:R:3 config_type=qcd dft_energy=-68.08511771 gap_energy=-68.10246359689461 relaxed_gap_energy=-68.18988624055588 energy=-68.18988624055588 free_energy=-68.18988624055588 pbc="T T T"
Ni      11.01391614      10.67548474       8.59269819      -0.00018914      -0.00005095       0.00044869
Ni      10.16221202       9.14282617      10.35406244       0.00009548       0.00016193      -0.00011760
Ni      12.48855337      12.35275738       9.68259614      -0.00019489       0.00008121      -0.00004256
Ni      10.19176600      12.91744328       9.03812925       0.00023220      -0.00023070      -0.00000350
Ni      10.60331192      11.42893665      10.77281406      -0.00041495       0.00018620      -0.00024081
Ni       8.75711047      10.93769768       9.45205419       0.00013526      -0.00020164       0.00016464
Ni       8.72861912      10.52041099      11.84489239       0.00021494       0.00027433       0.00005712
Ni      11.03005280      13.69622198      11.18083407       0.00009680      -0.00026751      -0.00026387
Ni      12.45554063      12.05437511      12.10394529      -0.00026199      -0.00001205       0.00000908
Ni      12.44435727      10.00593014      10.34923858      -0.00013197       0.00020291      -0.00013000
Ni      11.94073392       8.12522212      11.55552919       0.00030102       0.00003185      -0.00005589
Ni      14.24857738      11.30936968      10.88909589       0.00007216      -0.00008017       0.00041106
Ni      10.89489369       9.90110643      12.55452948      -0.00008287       0.00003912      -0.00008299
Ni       8.76713653      12.82069927      11.06543091       0.00018657       0.00007654       0.00019697
Ni      10.17867738      12.19621832      12.96990685       0.00010386      -0.00005063      -0.00019749
Ni      13.25681113       9.88048064      12.56356767      -0.00022724       0.00014790      -0.00011886
Ni      11.95731443      11.15440358      14.15025959       0.00006476      -0.00030833      -0.00003398
18
Lattice="17.40809 0.0 0.0 0.0 17.40809 0.0 0.0 0.0 17.40809" Properties=species:S:1:pos:R:3:forces:R:3 config_type=qcd dft_energy=-72.5905968 gap_energy=-72.6673729954694 relaxed_gap_energy=-72.77519945589256 energy=-72.77519945589256 free_energy=-72.77519945589256 pbc="T T T"
Ni       9.26048594       8.71536954      10.58770629      -0.00026706       0.00064747       0.00016995
Ni       7.19574096       7.68919638      11.05484421       0.00035786       0.00020364      -0.00048585
Ni       7.49532135      10.08187665      11.22636742       0.00041555       0.00016210      -0.00027661
Ni       9.74649383      10.87116072      11.18411044       0.00020594      -0.00038803       0.00014225
Ni       8.53632301       6.84511717       9.31566972      -0.00063308      -0.00033991      -0.00043316
Ni       6.95035674       9.05248461       9.19011466      -0.00056842      -0.00014574       0.00054609
Ni       8.49446231      10.92653741       9.24446933      -0.00001401       0.00006837      -0.00003404
Ni      10.82993121      10.03596963       9.26927631      -0.00000987       0.00004357       0.00058431
Ni      10.80720333       7.57812771       9.16219234      -0.00001549       0.00003021      -0.00011350
Ni       9.08796203       8.89379591       8.20648840       0.00030792      -0.00017272       0.00007521
Ni       9.03875616       8.91436352       5.88630410       0.00002838      -0.00015564      -0.00005125
Ni       7.28957797       7.81472819       7.12803123      -0.00001978      -0.00001230      -0.00016220
Ni       9.61036642       6.88619001       7.12703489      -0.00023894      -0.00033087       0.00026123
Ni       7.44541462      10.25267329       7.14362862      -0.00018050       0.00013051      -0.00008130
Ni       9.79587035      10.86971593       7.21619022       0.00008380       0.00010815       0.00010686
Ni      11.15216924       8.82931025       7.12612875      -0.00010141       0.00030010      -0.00037392
Ni       6.23452029       6.82567087       9.01167774       0.00033313      -0.00003865      -0.00024912
Ni       7.70185423       5.59052220       7.59257533       0.00031597      -0.00011025       0.00037504
19
Lattice="20.78975178696179 0.0 0.0 0.0 20.78975178696179 0.0 0.0 0.0 20.78975178696179" Properties=species:S:1:pos:R:3:forces:R:3 config_type=qcd dft_energy=-77.18350272 gap_energy=-77.21731557206508 relaxed_gap_energy=-77.2963297479775 energy=-77.2963297479775 free_energy=-77.2963297479775 pbc="T T T"
Ni       7.09320905       9.44315762       9.49831260       0.00010299      -0.00047474       0.00014852
Ni      10.35085887       7.78870821      11.05902651      -0.00002113       0.00023708       0.00018713
Ni      10.12436489       9.11086485      13.11129791      -0.00000232      -0.00017005      -0.00018718
Ni      11.34771662      11.22353664      12.82613229      -0.00015058       0.00028891      -0.00034265
Ni      12.86540457      10.80769422       8.46235262      -0.00015879       0.00001335      -0.00039264
Ni       8.37232153      11.20418733      10.26546847      -0.00017766      -0.00007043       0.00041215
Ni       8.28641723       9.09062421      11.48614308       0.00017760       0.00003159      -0.00025931
Ni      11.73825965       8.92134925       9.47139617      -0.00003737       0.00025655      -0.00019696
Ni      12.25775983       9.12900473      11.89978909      -0.00016736       0.00000880      -0.00021116
Ni       8.94581195      11.20028972      12.57597190       0.00030473       0.00041995      -0.00019696
Ni      10.55829769      10.88325290       8.78023448       0.00006549      -0.00057513      -0.00029341
Ni      10.33246103      10.11433445      11.02003640      -0.00007954       0.00031666      -0.00003810
Ni      11.72689670      12.85613814       9.11176024       0.00068485       0.00041238       0.00002094
Ni      10.31375514      12.48324975      10.98029943      -0.00018072      -0.00016793       0.00086040
Ni       9.30904924      12.83289053       8.86001775      -0.00063732       0.00007167      -0.00010103
Ni      13.82807072       9.50817932      10.19984316      -0.00026945      -0.00039047       0.00003697
Ni       8.36809863      10.76445951       7.99397051       0.00027847      -0.00025115      -0.00029494
Ni      12.38482750      11.24290481      10.68332300       0.00035365      -0.00024212       0.00081131
Ni       9.29906115       8.89781580       9.21726638      -0.00008555       0.00028510       0.00003691
20
Lattice="26.7924430798345 0.0 0.0 0.0 26.7924430798345 0.0 0.0 0.0 26.7924430798345" Properties=species:S:1:pos:R:3:forces:R:3 config_type=qcd dft_energy=-81.87673164 gap_energy=-81.86580933591377 relaxed_gap_energy=-81.98245138342523 energy=-81.98245138342523 free_energy=-81.98245138342523 pbc="T T T"
Ni      13.52958263      13.27848077      14.52154010       0.00014321      -0.00015964       0.00038225
Ni      13.47394605      13.27935818      16.75890511      -0.00001991       0.00009181      -0.00042096
Ni      14.17990496      11.25174402      15.41107368      -0.00022575       0.00005239      -0.00024666
Ni      11.82633578      12.00068314      15.42264524       0.00017802       0.00015312       0.00017458
Ni      11.78899486      14.53867360      15.37268999       0.00020687       0.00000238      -0.00034578
Ni      14.21895786      15.26600496      15.48082050       0.00000875      -0.00030957       0.00014849
Ni      15.64269390      13.24802522      15.44658419      -0.00026598       0.00016065      -0.00020027
Ni      12.88097238      11.22459599      13.36038368      -0.00006949       0.00017752       0.00000681
Ni      11.37385508      13.17512277      13.38736214       0.00030602       0.00005900       0.00005281
Ni      12.99755541      15.39099642      13.42683944      -0.00007776      -0.00037290       0.00000312
Ni      15.31179643      14.54197926      13.41944852      -0.00010205      -0.00007534       0.00001368
Ni      15.26102542      12.03005633      13.37945064      -0.00014142       0.00014448      -0.00001382
Ni      13.53552261      13.31422720      12.26843027       0.00018151      -0.00010838      -0.00034865
Ni      13.49169412      13.38617247      10.03197497      -0.00003420       0.00002679       0.00041725
Ni      10.70104375      15.37070585      13.42051174       0.00016983      -0.00006000      -0.00008413
Ni      11.83715069      12.06586342      11.31823601       0.00022017       0.00017254      -0.00010498
Ni      14.19065654      11.31664547      11.31849599      -0.00018685       0.00016704       0.00019788
Ni      11.79938978      14.60107200      11.44861886       0.00009132      -0.00020840       0.00024509
Ni      14.22987839      15.33113402      11.37639659      -0.00014330      -0.00020648      -0.00016189
Ni      15.65347419      13.31288970      11.35402316      -0.00023899       0.00029301       0.00028519
21
Lattice="27.02391433857762 0.0 0.0 0.0 27.02391433857762 0.0 0.0 0.0 27.02391433857762" Properties=species:S:1:pos:R:3:forces:R:3 config_type=qcd dft_energy=-86.46811105 gap_energy=-86.47476832632529 relaxed_gap_energy=-86.58303712717336 energy=-86.58303712717336 free_energy=-86.58303712717336 pbc="T T T"
Ni      13.78240360      13.50533443      14.64087907      -0.00031031      -0.00002049      -0.00026159
Ni      13.64378488      13.49582954      16.87242342      -0.00007675      -0.00003052       0.00047365
Ni      14.44801326      11.50324695      15.57366852       0.00031561      -0.00016101      -0.00029954
Ni      12.04134164      12.19444477      15.46851998      -0.00013506      -0.00035952       0.00049658
Ni      12.05540473      14.82708682      15.48061794      -0.00014975       0.00036200       0.00047170
Ni      14.46932326      15.49153311      15.59200596       0.00036253       0.00009090      -0.00031843
Ni      15.89076077      13.48978795      15.56690145       0.00032112       0.00005606      -0.00052968
Ni      13.24434571      11.39948936      13.50274791       0.00011032      -0.00018492       0.00013952
Ni      11.61264921      13.52208766      13.51576328      -0.00092232       0.00003021      -0.00010806
Ni      13.26693825      15.62716290      13.52218524       0.00015446       0.00013031       0.00011914
Ni      15.55193665      14.74923651      13.51363312       0.00039699      -0.00003190      -0.00003052
Ni      15.53859473      12.25297159      13.50214211       0.00039851       0.00004353       0.00002383
Ni      13.77793929      13.51571348      12.38197560      -0.00032195       0.00004865       0.00022121
Ni      13.63055372      13.52677022      10.15099375      -0.00013019      -0.00000414      -0.00045293
Ni      10.95439522      11.32615010      13.50694714      -0.00038273       0.00038813      -0.00004370
Ni      10.97790934      15.72492949      13.52714182      -0.00042890      -0.00040119       0.00000913
Ni      12.03360105      12.21248411      11.54915436      -0.00019221      -0.00028614      -0.00039325
Ni      14.43980005      11.52231556      11.42815537       0.00048078      -0.00019418       0.00014446
Ni      12.04768085      14.84512232      11.56125488      -0.00020304       0.00032526      -0.00042058