3
Lattice="17.415761 0.0 0.0 0.0 17.415761 0.0 0.0 0.0 17.415761" Properties=species:S:1:pos:R:3:forces:R:3 config_type=qcd dft_energy=-18.14846334 gap_energy=-18.177982459116684 relaxed_gap_energy=-18.18337062223744 energy=-18.18337062223744 free_energy=-18.18337062223744 pbc="T T T"
Os       6.51992863       8.70000364       8.71023803      -0.00007804      -0.00014371      -0.00019260
Os       8.70787866       8.70722937       8.70700579       0.00015357       0.00028748       0.00038530
Os      10.89583420       8.71640849       8.70639769      -0.00007553      -0.00014377      -0.00019270
4
Lattice="14.490136 0.0 0.0 0.0 14.490136 0.0 0.0 0.0 14.490136" Properties=species:S:1:pos:R:3:forces:R:3 config_type=qcd dft_energy=-27.71547374 gap_energy=-28.568149383418632 relaxed_gap_energy=-28.638398163541343 energy=-28.638398163541343 free_energy=-28.638398163541343 pbc="T T T"
Os       7.85902314       8.16573907       6.06154861       0.00014965       0.00004520       0.00025548
Os       5.98587545       8.25606522       7.37831323       0.00051624      -0.00073039      -0.00020660
Os       8.50456605       6.23439703       7.11223498      -0.00079372       0.00043633      -0.00015940
Os       6.63080736       6.32407069       8.42817518       0.00012783       0.00024886       0.00011052
5
Lattice="18.35584064998411 0.0 0.0 0.0 18.35584064998411 0.0 0.0 0.0 18.35584064998411" Properties=species:S:1:pos:R:3:forces:R:3 config_type=qcd dft_energy=-35.78640128 gap_energy=-37.10618577937713 relaxed_gap_energy=-37.13141840327573 energy=-37.13141840327573 free_energy=-37.13141840327573 pbc="T T T"
Os      10.69473932       8.73720561       9.75618966       0.00014810      -0.00018030      -0.00008025
Os       8.53478426       8.03795122      10.23446829       0.00011588       0.00033596       0.00000736
Os       9.85383463      10.66507202       8.77674564      -0.00006852       0.00003635       0.00029762
Os       7.69389804       9.96599858       9.25536200      -0.00007198      -0.00012842      -0.00021323
Os       9.11234538       8.48337420       7.86683603      -0.00012348      -0.00006359      -0.00001150
6
Lattice="14.369841 0.0 0.0 0.0 14.369841 0.0 0.0 0.0 14.369841" Properties=species:S:1:pos:R:3:forces:R:3 config_type=qcd dft_energy=-45.73227876 gap_energy=-46.40653641353195 relaxed_gap_energy=-46.47057248877199 energy=-46.47057248877199 free_energy=-46.47057248877199 pbc="T T T"
Os       5.97582426       6.48622968       6.04559478      -0.00034235       0.00005493      -0.00009410
Os       8.39442806       6.48709862       6.04552132       0.00038454      -0.00036407       0.00006452
Os       7.18441049       8.58124688       6.04546556      -0.00001813       0.00039841      -0.00015772
Os       5.97584273       6.48643464       8.32437381      -0.00026179      -0.00018711       0.00016539
Os       8.39444771       6.48714271       8.32431929       0.00048634      -0.00022925      -0.00003866
Os       7.18456975       8.58137045       8.32424825      -0.00024861       0.00032710       0.00006057
7
Lattice="15.3958 0.0 0.0 0.0 15.3958 0.0 0.0 0.0 15.3958" Properties=species:S:1:pos:R:3:forces:R:3 config_type=qcd dft_energy=-55.24894021 gap_energy=-54.97294438822889 relaxed_gap_energy=-55.00977773978867 energy=-55.00977773978867 free_energy=-55.00977773978867 pbc="T T T"
Os       7.58373108       9.54813013       7.73535983      -0.00004310       0.00016340       0.00009037
Os       6.07045058       8.12436632       6.68053624      -0.00010017       0.00005159      -0.00016561
Os       9.35167096       8.32367359       6.83821372       0.00000398       0.00006061      -0.00006407
Os       7.83607284       6.61121154       6.19641729       0.00001073      -0.00018043       0.00003687
Os       7.57823712       8.15818504       9.60560184       0.00004485       0.00005302       0.00015899
Os       6.45401416       6.48219588       8.35314262       0.00002699      -0.00000951      -0.00006378
Os       9.01112325       6.63753752       8.47602846       0.00005672      -0.00013868       0.00000724
8
Lattice="14.36585 0.0 0.0 0.0 14.36585 0.0 0.0 0.0 14.36585" Properties=species:S:1:pos:R:3:forces:R:3 config_type=qcd dft_energy=-65.67293899 gap_energy=-65.51307153287505 relaxed_gap_energy=-65.58207816327479 energy=-65.58207816327479 free_energy=-65.58207816327479 pbc="T T T"
Os       6.01018296       6.00002800       5.99447414      -0.00045777      -0.00042869      -0.00075468
Os       5.99540756       6.00054164       8.35721831      -0.00039575      -0.00042264       0.00053154
Os       8.37295249       6.00249406       6.00919646       0.00023256      -0.00038874      -0.00062792
Os       8.35817505       6.00300734       8.37194155       0.00040275      -0.00024186       0.00067666
Os       6.00767626       8.36284418       5.99390802      -0.00039895       0.00022568      -0.00067278
Os       5.99289627       8.36335444       8.35665327      -0.00023817       0.00040316       0.00062667
Os       8.37044420       8.36530739       6.00863210       0.00038053       0.00041752      -0.00053506
Os       8.35566521       8.36582295       8.37137613       0.00047479       0.00043556       0.00075557
9
Lattice="17.524538 0.0 0.0 0.0 17.524538 0.0 0.0 0.0 17.524538" Properties=species:S:1:pos:R:3:forces:R:3 config_type=qcd dft_energy=-72.47665077 gap_energy=-72.14473649896433 relaxed_gap_energy=-72.31357528664594 energy=-72.31357528664594 free_energy=-72.31357528664594 pbc="T T T"
Os       6.84468920       7.60567775       7.38592164      -0.00003357      -0.00047899       0.00034000
Os       7.56235124       7.60293012       9.70767235      -0.00023340      -0.00001212      -0.00020266
Os       9.25119329       7.59089777       7.86259733       0.00012787       0.00032122      -0.00022304
Os      10.06761649       7.59081197      10.20415954       0.00025939      -0.00006381      -0.00001771
Os       6.82933488       9.89849120       7.39041772       0.00012524       0.00069469       0.00033420
Os       7.54701718       9.90187976       9.71215829      -0.00022651      -0.00014122      -0.00015503
Os       9.23547239       9.94369249       7.86727294       0.00022772      -0.00057444      -0.00033446
Os      10.05207315       9.94525153      10.20878645      -0.00002908       0.00019951       0.00002804
Os      11.47067319       8.78078842       8.52143473      -0.00021766       0.00005516       0.00023066
10
Lattice="17.491618 0.0 0.0 0.0 17.491618 0.0 0.0 0.0 17.491618" Properties=species:S:1:pos:R:3:forces:R:3 config_type=qcd dft_energy=-82.64958052 gap_energy=-82.68917199724231 relaxed_gap_energy=-82.8127875855076 energy=-82.8127875855076 free_energy=-82.8127875855076 pbc="T T T"
Os       7.56360867       6.87156081       7.56777480      -0.00019657      -0.00026285       0.00015017
Os       9.92801502       6.87141069       7.56801508       0.00020765      -0.00021964       0.00013248
Os       7.52645009       9.26077002       7.58469332       0.00064542      -0.00021149      -0.00033285
Os       9.96546093       9.26061574       7.58492879      -0.00065261      -0.00016843      -0.00030771
Os       8.74608991      11.46447913       7.61103625      -0.00001036      -0.00029098      -0.00057203
Os       7.56337352       6.87161870       9.92399165      -0.00019012       0.00043230      -0.00055936
Os       9.92778414       6.87148870       9.92423187       0.00019076       0.00036357      -0.00057989
Os       7.52624436       9.26083546       9.90655616       0.00057360       0.00041473       0.00058773
Os       9.96520648       9.26070124       9.90679194      -0.00056131       0.00034348       0.00061163
Os       8.74585688      11.46460949       9.88007015      -0.00000645      -0.00040070       0.00086985
11
Lattice="17.17293 0.0 0.0 0.0 17.17293 0.0 0.0 0.0 17.17293" Properties=species:S:1:pos:R:3:forces:R:3 config_type=qcd dft_energy=-91.6777944 gap_energy=-90.70701060437534 relaxed_gap_energy=-90.90500781154026 energy=-90.90500781154026 free_energy=-90.90500781154026 pbc="T T T"
Os       8.71504804      10.64639880       8.54590635       0.00008679      -0.00024879      -0.00018908
Os       6.58226190      10.37530404       9.82284579      -0.00014695      -0.00028188       0.00006294
Os      10.90913917      10.35258652       9.78403267       0.00015322       0.00007748      -0.00018458
Os       6.54791224       8.14255279       9.29118940      -0.00019639       0.00029296       0.00015141
Os      10.87373739       8.05426477       9.23671924       0.00020062       0.00013023      -0.00015207
Os       8.68068305       8.41396626       8.01430014       0.00010663       0.00032431      -0.00003791
Os       8.63344794       7.79430320      10.47346316      -0.00024066       0.00009309      -0.00022930
Os       8.66882155      10.09263941      11.02073020      -0.00022593      -0.00011368      -0.00020189
Os      10.70328119       8.67690771      11.73371834       0.00040325      -0.00017756       0.00076372
Os      10.93550137      10.88053007       7.41989920      -0.00008689      -0.00023144      -0.00005587
Os      10.90112178       8.64781024       6.88819731      -0.00005369       0.00013528       0.00007263
12
Lattice="16.880977 0.0 0.0 0.0 16.880977 0.0 0.0 0.0 16.880977" Properties=species:S:1:pos:R:3:forces:R:3 config_type=qcd dft_energy=-101.59105275 gap_energy=-101.12300485842005 relaxed_gap_energy=-101.88071555234586 energy=-101.88071555234586 free_energy=-101.88071555234586 pbc="T T T"
Os       7.26043625       7.26318922       5.97011981       0.00029267       0.00065280       0.00045061
Os       7.27460843       7.27195846       8.44376813       0.00025589      -0.00031429       0.00003567
Os       7.27290162       7.26472634      10.91746204       0.00024742       0.00061543      -0.00035176
Os       9.61078297       7.26592266       5.96424895      -0.00025185      -0.00037379      -0.00012627
Os       9.60905905       7.27463703       8.43791758      -0.00032718      -0.00083575      -0.00002460
Os       9.62324921       7.26744213      10.91155040      -0.00031614      -0.00037850       0.00005635
Os       7.25771793       9.61356124       5.96940089       0.00034945      -0.00066354       0.00046889
Os       7.27191882       9.60634668       8.44305550       0.00027709       0.00027131       0.00004499
Os       7.27020227       9.61509589      10.91674499       0.00027499      -0.00065999      -0.00035162
Os       9.60806490       9.61623233       5.96354287      -0.00019413       0.00038357      -0.00017802
Os       9.60636988       9.60899792       8.43721289      -0.00030956       0.00091888      -0.00005676
Os       9.62055068       9.61775208      10.91083797      -0.00029866       0.00038387       0.00003251
13
Lattice="17.286369 0.0 0.0 0.0 17.286369 0.0 0.0 0.0 17.286369" Properties=species:S:1:pos:R:3:forces:R:3 config_type=qcd dft_energy=-110.51422938 gap_energy=-109.49886534504645 relaxed_gap_energy=-109.70036824520284 energy=-109.70036824520284 free_energy=-109.70036824520284 pbc="T T T"
Os       7.02969798       7.46245256       6.45172076       0.00029292      -0.00001724       0.00007142
Os       7.61004927       7.47290471       8.77200472      -0.00065560       0.00012315       0.00007880
Os       7.07873941       7.49009591      11.22456352       0.00010477      -0.00004675       0.00040723
Os       9.32398758       7.45924946       5.88540553       0.00044388      -0.00041166       0.00043326
Os       9.96554910       7.43776500       8.17403664      -0.00023587       0.00016583      -0.00011851
Os       9.41610223       7.45484386      10.74142356      -0.00036288       0.00030529      -0.00048882
Os       7.03115610       9.82329111       6.45032428       0.00042383       0.00013785      -0.00005950
Os       7.61157705       9.81495512       8.77059181      -0.00073791      -0.00028775       0.00003116
Os       7.08020385       9.80148729      11.22312417       0.00031794      -0.00011283       0.00057218
Os       9.32545672       9.82294095       5.88403514       0.00052836       0.00038058       0.00015830
Os       9.96714725       9.84629895       8.17261464      -0.00054279       0.00005751      -0.00028845
Os       9.41762638       9.83302315      10.73999907      -0.00025530      -0.00012736      -0.00048887
Os      11.50410557       8.64209045       9.87155467       0.00067864      -0.00016663      -0.00030819
14
Lattice="21.56625125964029 0.0 0.0 0.0 21.56625125964029 0.0 0.0 0.0 21.56625125964029" Properties=species:S:1:pos:R:3:forces:R:3 config_type=qcd dft_energy=-118.83865198 gap_energy=-117.63309872970746 relaxed_gap_energy=-118.21906766237552 energy=-118.21906766237552 free_energy=-118.21906766237552 pbc="T T T"
Os      11.15546356       7.73382332       9.51545980      -0.00041428      -0.00047991       0.00013286
Os      11.17926325      10.03863943       8.55046660      -0.00007785      -0.00010184      -0.00027751
Os      10.87363581      12.98121269       9.85819261       0.00030453      -0.00003218      -0.00015247
Os      12.14974749      11.06078077      10.47727459      -0.00051244       0.00072945      -0.00028387
Os      12.01742159       8.63808654      11.42662560       0.00055508       0.00073734      -0.00003004
Os       9.98668341      11.97500033       7.91496516       0.00051255      -0.00040254       0.00018001
Os      13.58056366      10.30540181      12.51141280      -0.00002134      -0.00041328       0.00028500
Os      11.62170791       9.55085486      13.75280284       0.00066484      -0.00016781      -0.00009604
Os       9.21317791       9.28068104       9.79658344      -0.00045512      -0.00002141      -0.00016595
Os      10.52773502      13.77768262      12.20124320      -0.00017371       0.00082793       0.00013415
Os      11.67620953      11.92771176      12.88811198      -0.00033799      -0.00031500       0.00035329
Os       9.99838183      10.23185614      11.84065312      -0.00044843      -0.00008152      -0.00049585
Os       8.90739677      12.22354838      11.10424341       0.00010114      -0.00036387       0.00008183
Os       8.07637109      11.23847913       9.12572367       0.00030304       0.00008462       0.00033459
14
Lattice="17.781669 0.0 0.0 0.0 17.781669 0.0 0.0 0.0 17.781669" Properties=species:S:1:pos:R:3:forces:R:3 config_type=qcd dft_energy=-118.82410744 gap_energy=-118.02466166392387 relaxed_gap_energy=-118.54190337993887 energy=-118.54190337993887 free_energy=-118.54190337993887 pbc="T T T"
Os       6.77027026       7.74552501       6.00960955      -0.00039335      -0.00086748      -0.00009385
Os       6.78610414      10.04273885       6.00064367      -0.00036425       0.00091639      -0.00009980
Os       7.25111163       7.75214547       8.44192358       0.00054324       0.00042731       0.00012624
Os       7.26694922      10.04849870       8.43296025       0.00054162      -0.00044065       0.00013296
Os       7.81677793       7.75078315      10.96638586       0.00037016       0.00010045      -0.00014986
Os       7.83273123      10.06178121      10.95736756       0.00034865      -0.00014708      -0.00014941
Os       9.05631945       7.70515702       6.75721154       0.00021294      -0.00037033      -0.00012426
Os       9.07253685      10.05744008       6.74803237       0.00023312       0.00034486      -0.00012764
Os       9.71447899       7.63964627       9.32061861      -0.00090518      -0.00008317      -0.00037652
Os       9.73168696      10.13386436       9.31088704      -0.00091311       0.00008365      -0.00038454
Os      10.05949936       7.71950467      11.83024973       0.00015946       0.00000866       0.00012154
Os      10.07571894      10.06881469      11.82108806       0.00013428       0.00003319       0.00010650
Os      11.75167470       8.87594648      10.13305633       0.00011281       0.00000392       0.00046239
Os      11.28582335       8.86983704       7.74164886      -0.00008040      -0.00000972       0.00055626
15
Lattice="18.813377 0.0 0.0 0.0 18.813377 0.0 0.0 0.0 18.813377" Properties=species:S:1:pos:R:3:forces:R:3 config_type=qcd dft_energy=-129.9956741 gap_energy=-127.784923477657 relaxed_gap_energy=-127.8609823500536 energy=-127.8609823500536 free_energy=-127.8609823500536 pbc="T T T"
Os      11.57303006       7.65414391       9.22403632       0.00040375       0.00047653       0.00030351
Os       8.67044756      11.53957490       8.12505202      -0.00016076      -0.00030111      -0.00037494
Os      10.58740157       8.85275985       7.16302851      -0.00014825       0.00024035       0.00014374
Os       7.63991400       7.70826233      11.13550872      -0.00038370       0.00029092       0.00020138
Os       8.16031613       9.46475657       7.13129735       0.00005931       0.00039514       0.00024355
Os      11.09762351      10.92755327       8.15669250      -0.00044753       0.00007627      -0.00021756
Os       9.11598955       8.24106077       9.16029373       0.00000419      -0.00008063      -0.00017168
Os      12.07150916       9.68123316      10.19472492       0.00007348      -0.00064815       0.00023190
Os       8.13743357       9.73193256      12.10451213      -0.00057014      -0.00056173       0.00003731
Os       6.67352615       8.88956796       9.15970501       0.00024542       0.00078329       0.00041922
Os      10.11384864       7.08437173      11.16809505       0.00050427       0.00044213      -0.00016841
Os       9.63264705      10.34230065      10.16662617       0.00001860       0.00024376      -0.00013943
Os       9.84330296      10.95817082       5.94318121       0.00007216      -0.00051759       0.00029330
Os       7.17183283      10.91666305      10.13045380       0.00023225      -0.00038659      -0.00035098
Os      10.61150476       9.10797598      12.13712005       0.00009694      -0.00045256      -0.00045091
16
Lattice="20.66662505987956 0.0 0.0 0.0 20.66662505987956 0.0 0.0 0.0 20.66662505987956" Properties=species:S:1:pos:R:3:forces:R:3 config_type=qcd dft_energy=-136.2593237 gap_energy=-135.89388783675852 relaxed_gap_energy=-136.72691884137782 energy=-136.72691884137782 free_energy=-136.72691884137782 pbc="T T T"
Os      11.49839387       7.47847344      10.54581596      -0.00012729       0.00024794       0.00010078
Os      12.50720498       9.12904735      12.09969068      -0.00043089      -0.00038141       0.00000496
Os       8.90083215       7.69797640      10.08825575       0.00060933      -0.00058066       0.00040410
Os      10.15305569       9.41958411      11.31612737       0.00061378       0.00005555      -0.00049051
Os       8.39607119      11.45057133      12.92907727      -0.00010297      -0.00029138       0.00004222
Os      11.99173331       8.91701716       8.74594771      -0.00005598      -0.00058952      -0.00033642
Os      12.92700064      10.47688073      10.19388478      -0.00052395       0.00016399      -0.00013980
Os       7.71886963       9.55646299      11.59994798       0.00001760       0.00046428      -0.00031565
Os      10.72804880      10.97926894      13.09056116      -0.00006724       0.00036577      -0.00009458
Os       9.60595032       9.60904603       8.75783707      -0.00011646       0.00060739       0.00013400
Os      11.34864320      10.73533848       7.13809397       0.00044643      -0.00018068      -0.00025943
Os      10.97052885      11.88845464      10.86377158       0.00017279      -0.00013305       0.00025708
Os       8.65729720      12.71277828      10.97514956      -0.00009042      -0.00011115      -0.00028523
Os      12.34151570      12.29278855       8.59875684      -0.00023938       0.00002167       0.00033227
Os       7.71177108      10.92517639       9.72584826       0.00003846       0.00019322       0.00058048
Os       9.87608388      12.06413564       8.66423453      -0.00014381       0.00014804       0.00006575
17
Lattice="21.40698639758186 0.0 0.0 0.0 21.40698639758186 0.0 0.0 0.0 21.40698639758186" Properties=species:S:1:pos:R:3:forces:R:3 config_type=qcd dft_energy=-146.65175015 gap_energy=-145.2407524586401 relaxed_gap_energy=-146.27826081566295 energy=-146.27826081566295 free_energy=-146.27826081566295 pbc="T T T"
Os      12.34094708       6.91652610      11.29705650      -0.00030700       0.00052786      -0.00039757
Os      10.55269464      10.76851703      12.39137450       0.00012396       0.00052974      -0.00042540
Os      10.91565037      13.09146481      13.33596805      -0.00005930       0.00002899       0.00038293
Os       7.64150168      12.30288567       9.70457275       0.00002673      -0.00000197      -0.00022161
Os      12.60024066       9.06679689      12.18229041       0.00001921      -0.00051477      -0.00006665
Os      12.57571185      13.55600883      11.72096416      -0.00007986       0.00009514       0.00016562
Os      12.30555712      11.25911696      10.68616217      -0.00019502       0.00025232      -0.00048919
Os       9.26379167      12.75697612       8.12623407      -0.00006014      -0.00022597       0.00007060
Os      10.52566350      10.79482343       8.83296636       0.00050112       0.00043401      -0.00007923
Os      12.85018355      11.51009179      13.14232061       0.00031345      -0.00012890      -0.00004993
Os      12.02094013       8.77233987       9.68971033      -0.00028209      -0.00021879       0.00070491
Os      10.34308393       8.52977064       8.00081319       0.00007729      -0.00047075       0.00026477
Os      10.27942033       8.28488719      11.38400420       0.00025908      -0.00008574      -0.00008991
Os       9.27603572      12.74703328      11.49987554       0.00016459      -0.00008778       0.00004759
Os       8.70304842       8.07063542       9.59640603      -0.00002496      -0.00017548      -0.00003380
Os       8.87853567      10.33377017      10.43544708      -0.00025240       0.00010531      -0.00007011
Os      10.88637805      13.19774017       9.93321842      -0.00022467      -0.00006322       0.00028699
18
Lattice="21.76732901665206 0.0 0.0 0.0 21.76732901665206 0.0 0.0 0.0 21.76732901665206" Properties=species:S:1:pos:R:3:forces:R:3 config_type=qcd dft_energy=-156.33002289 gap_energy=-154.57466683675275 relaxed_gap_energy=-155.85852096890466 energy=-155.85852096890466 free_energy=-155.85852096890466 pbc="T T T"
Os       9.83972447       9.54590233       8.95170355      -0.00008624      -0.00018472       0.00030059
Os      10.65810351      11.06993189      10.84395933      -0.00004332       0.00000983       0.00026369
Os      10.62862372      13.64992522      10.74164682       0.00010242       0.00066263      -0.00004619
Os      10.96268590       8.48833740      10.98617181       0.00001282      -0.00034515      -0.00003209
Os       9.32225834       9.68221596      12.53602620      -0.00026703      -0.00024429      -0.00024443
Os      11.83806714       9.95097788      12.87713263       0.00021516      -0.00012880      -0.00009512
Os       8.47861391       8.20343442      10.63833494      -0.00025022       0.00032991       0.00006519
Os      11.60199732      12.49028583      12.75837219       0.00021618       0.00030836      -0.00018187
Os      13.45204917       8.76275066      11.33519344      -0.00006865       0.00009821      -0.00020597
Os      13.22761713      11.27816140      11.20707456       0.00034236       0.00006781       0.00003474
Os      12.35219633       9.81555458       9.31614180       0.00011636      -0.00014083       0.00004545
Os       9.10449745      12.19428992      12.57333835       0.00029523      -0.00020907       0.00015310
Os      11.26120011      10.86140421       7.29395873      -0.00009213       0.00004042       0.00034918
Os       9.66838078      12.04577149       8.66763052       0.00038394      -0.00033116      -0.00012070
Os      10.23162304      11.13261543      14.42514686      -0.00000081      -0.00000408      -0.00056251
Os       8.14441703      10.59000275      10.49935195      -0.00062882      -0.00021419      -0.00010221
Os      13.01441811      13.79040487      11.08072127      -0.00037526       0.00017290       0.00005760
Os      12.11948772      12.35399491       9.17405619       0.00012800       0.00011220       0.00032155
19
Lattice="21.2042009658514 0.0 0.0 0.0 21.2042009658514 0.0 0.0 0.0 21.2042009658514" Properties=species:S:1:pos:R:3:forces:R:3 config_type=qcd dft_energy=-165.23929802 gap_energy=-163.6456216841895 relaxed_gap_energy=-164.9483135238758 energy=-164.9483135238758 free_energy=-164.9483135238758 pbc="T T T"
Os       8.33587724       9.24028340       8.48264337      -0.00038753       0.00041137       0.00007376
Os      10.51147487       8.65473689       9.65242615       0.00038180      -0.00041059       0.00037805
Os      13.13424252       9.53587935      11.86105365      -0.00031787      -0.00031822       0.00010345
Os      13.97157384       8.48135411       9.78078201      -0.00012567       0.00035582       0.00010516
Os       8.11920711      11.45857771       9.76156042      -0.00011047       0.00032856      -0.00011669
Os      11.81111288      11.21867847      12.95091353       0.00024728      -0.00006089      -0.00021889
Os      12.24756942       6.95993836       9.85836650       0.00002895       0.00087003       0.00029785
Os      12.27630008      12.69147585      10.72212099       0.00050566       0.00016694       0.00027401
Os      12.49537886      10.40557244       9.56321383       0.00033163      -0.00050627      -0.00002586
Os       8.33137099       9.20995541      10.89944883      -0.00044026      -0.00008981       0.00015357
Os      10.28480259      10.97823883      10.92605328       0.00020603      -0.00023149       0.00001210
Os      10.22878488      10.91353915       8.40962068      -0.00014764      -0.00003500      -0.00001333
Os      11.41081937       8.01492236      11.93865464       0.00001385       0.00023059      -0.00066054
Os      12.12365230      12.58323945       8.31239861       0.00000471       0.00008020       0.00001031
Os      10.01633465      13.13293528       9.67630280      -0.00015756      -0.00045495       0.00005595
Os       9.96078915       9.58578602      13.03402863       0.00034503      -0.00032733       0.00011527
Os      10.05050502      13.19560001      12.22608589      -0.00027650       0.00019749      -0.00044255
Os       8.18154097      11.54622872      12.31002913      -0.00034120       0.00005893      -0.00007340
Os       7.94857244      13.63296738      11.07420625       0.00023975      -0.00026538      -0.00002823
20
Lattice="21.44715812741417 0.0 0.0 0.0 21.44715812741417 0.0 0.0 0.0 21.44715812741417" Properties=species:S:1:pos:R:3:forces:R:3 config_type=qcd dft_energy=-173.58253213 gap_energy=-173.04636385237654 relaxed_gap_energy=-174.3039437283576 energy=-174.3039437283576 free_energy=-174.3039437283576 pbc="T T T"
Os      10.47229200      11.41572365       8.13657363       0.00040629       0.00032874      -0.00000960
Os       9.32569355       9.10600145       8.22736920      -0.00039828      -0.00070526      -0.00042283
Os      11.82877006       9.27933208       8.26111225       0.00026078      -0.00051469      -0.00046927
Os      11.63928148      13.71573999       8.40467966      -0.00052350       0.00017628       0.00032072
Os      12.71850746      11.66370092       9.15534619       0.00026892       0.00058916      -0.00043265
Os      10.59010948      11.13179634      10.65154427       0.00014146       0.00032975      -0.00013748
Os      12.88187972       9.51174321      10.66662955       0.00016274       0.00030407      -0.00024535
Os       8.28676856      11.03688466       9.53732366       0.00011254       0.00009034      -0.00002731
Os       9.64211123      13.25540181       9.66932707       0.00033429      -0.00030778       0.00023916
Os      10.51756794       8.46078868      10.27553628      -0.00027353      -0.00039155       0.00003143
Os       8.16374847       8.95421728      10.89448252       0.00014337      -0.00034338       0.00042204
Os       9.47073958      12.66122006      12.30158843       0.00063553      -0.00012490      -0.00044975
Os      11.83837138      13.30819060      10.88075331      -0.00023163       0.00018920       0.00003428
Os      13.80671586      11.61673976      11.61190334       0.00040810      -0.00018164       0.00048960
Os      11.58490347       8.91570730      12.69190926      -0.00033089      -0.00011938      -0.00048436
Os       7.42651414      11.42989333      11.76260760      -0.00073532       0.00013214      -0.00009918
Os       9.42071307       7.61344761      12.49048546       0.00013591       0.00055040       0.00009527
Os      11.75028728      11.39698232      12.96059566      -0.00041099       0.00008503       0.00012635
Os       9.31590107      10.16628653      12.73887030      -0.00004469       0.00020799       0.00092435
Os      13.79070546       9.83178371      13.15294358      -0.00006109      -0.00029455       0.00009457
21
Lattice="21.33427798574198 0.0 0.0 0.0 21.33427798574198 0.0 0.0 0.0 21.33427798574198" Properties=species:S:1:pos:R:3:forces:R:3 config_type=qcd dft_energy=-184.17588076 gap_energy=-182.1825053123625 relaxed_gap_energy=-183.56591250290214 energy=-183.56591250290214 free_energy=-183.56591250290214 pbc="T T T"
Os       8.01799142       7.50118344      11.72751800      -0.00002824      -0.00037279       0.00056407
Os      10.49982471       8.06129061      11.70528418      -0.00026527       0.00027238       0.00011402
Os       7.97593853       8.93993247       9.92695874      -0.00013752      -0.00014653      -0.00027416
Os      12.19719486      10.69071746      12.74586996      -0.00001792       0.00009727       0.00014100
Os       9.31339256      11.92318154       9.00200374       0.00019956       0.00031905       0.00007924
Os      14.29980781      10.65962389      11.14040986       0.00018114      -0.00000649      -0.00038192
Os       8.29477197      10.94005162      11.21528428       0.00002584       0.00039394      -0.00022039
Os      10.79094790      14.47977394      10.57728649       0.00001748       0.00029782       0.00032447