3
Lattice="18.02093203493091 0.0 0.0 0.0 18.02093203493091 0.0 0.0 0.0 18.02093203493091" Properties=species:S:1:pos:R:3:forces:R:3 config_type=qcd dft_energy=-13.81171962 gap_energy=-14.083867038208563 relaxed_gap_energy=-14.233329018317317 energy=-14.233329018317317 free_energy=-14.233329018317317 pbc="T T T"
P       10.15465358       8.61556681       9.19449210      -0.00002081       0.00001163      -0.00000502
P        8.81441335      10.13966320       8.57982902       0.00002574       0.00002204      -0.00000749
P        8.06233112       8.27616804       9.25707693      -0.00000493      -0.00003367       0.00001251
4
Lattice="17.07002360865782 0.0 0.0 0.0 17.07002360865782 0.0 0.0 0.0 17.07002360865782" Properties=species:S:1:pos:R:3:forces:R:3 config_type=qcd dft_energy=-20.94130134 gap_energy=-18.97226900381726 relaxed_gap_energy=-18.984214014082013 energy=-18.984214014082013 free_energy=-18.984214014082013 pbc="T T T"
P        8.03737262       9.38472336       7.59768956       0.00009805      -0.00008985       0.00017338
P        9.69054309       7.98315570       8.07851824       0.00024886      -0.00001194      -0.00023227
P        7.62946473       7.55141537       8.78138854      -0.00033804      -0.00018753      -0.00003567
P        8.78266678       9.22075278       9.68245088      -0.00000887       0.00028932       0.00009456
5
Lattice="12.62044192549645 0.0 0.0 0.0 12.62044192549645 0.0 0.0 0.0 12.62044192549645" Properties=species:S:1:pos:R:3:forces:R:3 config_type=qcd dft_energy=-24.76043975 gap_energy=-24.784651166778605 relaxed_gap_energy=-24.805612679757434 energy=-24.805612679757434 free_energy=-24.805612679757434 pbc="T T T"
P        7.37738058       6.66956672       5.31657042      -0.00047901      -0.00010960       0.00030746
P        5.20753873       7.15831119       5.63001810       0.00054239      -0.00028242       0.00016227
P        5.81532856       5.06930150       5.52729315       0.00000924       0.00043691       0.00032124
P        7.64928293       6.63944737       7.53658930      -0.00022927       0.00006521      -0.00028795
P        5.50157402       6.01447804       7.54063384       0.00015665      -0.00011010      -0.00050303
6
Lattice="18.01469481008459 0.0 0.0 0.0 18.01469481008459 0.0 0.0 0.0 18.01469481008459" Properties=species:S:1:pos:R:3:forces:R:3 config_type=qcd dft_energy=-30.40908714 gap_energy=-29.176344200658512 relaxed_gap_energy=-29.57704344370986 energy=-29.57704344370986 free_energy=-29.57704344370986 pbc="T T T"
P        9.58980500      10.00909097       7.46076947      -0.00006646      -0.00005230      -0.00008932
P        8.81397206       8.06695337       7.33014613       0.00008049       0.00008358       0.00019487
P        8.31271147      10.48668545       9.22262826       0.00035241      -0.00046381       0.00025238
P        9.63750001       7.51784848       9.32605285       0.00006990      -0.00020408      -0.00038192
P        7.86184231       8.51179326      10.22466029       0.00000711       0.00030268       0.00004699
P        9.82825359       9.45171289      10.47982743      -0.00044345       0.00033394      -0.00002298
7
Lattice="18.71863691732205 0.0 0.0 0.0 18.71863691732205 0.0 0.0 0.0 18.71863691732205" Properties=species:S:1:pos:R:3:forces:R:3 config_type=qcd dft_energy=-35.78474103 gap_energy=-35.0420540728671 relaxed_gap_energy=-35.148074527992065 energy=-35.148074527992065 free_energy=-35.148074527992065 pbc="T T T"
P       10.61099085       8.01413043       9.60419233       0.00016996      -0.00064601       0.00008964
P        7.39605888       9.06243867       9.85167948      -0.00017800       0.00075593       0.00045432
P        8.47432894      10.84899641      10.34924060      -0.00067877      -0.00023268       0.00005242
P        9.92561449      10.97923956       8.65822822       0.00049638       0.00003280       0.00008108
P        8.57085993       7.61698859       8.78965874       0.00059145      -0.00036598      -0.00032594
P        9.98748497       8.92882930       7.66915273      -0.00038312       0.00004305      -0.00029217
P       10.54989116      10.06460626      10.59307711      -0.00001791       0.00041288      -0.00005936
7
Lattice="18.908326423751 0.0 0.0 0.0 18.908326423751 0.0 0.0 0.0 18.908326423751" Properties=species:S:1:pos:R:3:forces:R:3 config_type=qcd dft_energy=-35.74726282 gap_energy=-35.03794324497787 relaxed_gap_energy=-35.22399305353676 energy=-35.22399305353676 free_energy=-35.22399305353676 pbc="T T T"
P       10.00085352       8.86998451       7.77025080       0.00031774       0.00037581       0.00050076
P        7.89362336       8.57896134       8.42364060      -0.00039873      -0.00014592      -0.00007548
P        8.77150655      10.63380463       8.34459084      -0.00008014      -0.00032368       0.00035289
P       11.06996352       8.48851179       9.72857924       0.00060761      -0.00038280      -0.00006443
P        7.81066306       9.89965071      10.21277093      -0.00035509       0.00030748       0.00009085
P       10.99385995      10.54679499      10.37436262       0.00026347       0.00011376      -0.00022731
P        9.63867252       9.16143454      11.32494746      -0.00035485       0.00005535      -0.00057727
8
Lattice="16.53904548931474 0.0 0.0 0.0 16.53904548931474 0.0 0.0 0.0 16.53904548931474" Properties=species:S:1:pos:R:3:forces:R:3 config_type=qcd dft_energy=-41.4682637 gap_energy=-41.21017576204625 relaxed_gap_energy=-41.300054814912556 energy=-41.300054814912556 free_energy=-41.300054814912556 pbc="T T T"
P        9.09787725       6.75932455       7.05163357       0.00003442      -0.00003168       0.00045987
P        9.88102053       7.20842096       9.12037450       0.00011215       0.00013438      -0.00031750
P       10.08802309       8.68162818       7.49070313      -0.00025629       0.00006980       0.00000535
P        6.99240930       7.00860123       7.81227254      -0.00024346      -0.00020158      -0.00009563
P        7.76402007       7.44950052       9.85136698       0.00006763      -0.00005732      -0.00022887
P        8.47290118      10.21764139       7.77284219       0.00017699      -0.00008949       0.00024523
P        6.53925196       9.19199394       7.49357943       0.00023998       0.00007352       0.00026157
P        7.32067858       9.63907118       9.56340962      -0.00013141       0.00010237      -0.00033002
9
Lattice="19.64541166205698 0.0 0.0 0.0 19.64541166205698 0.0 0.0 0.0 19.64541166205698" Properties=species:S:1:pos:R:3:forces:R:3 config_type=qcd dft_energy=-46.38908187 gap_energy=-46.625003756653626 relaxed_gap_energy=-47.023022386562246 energy=-47.023022386562246 free_energy=-47.023022386562246 pbc="T T T"
P        9.47081029       8.16491792       9.14638965      -0.00005619       0.00028192       0.00028270
P        7.92624968       9.66102014       8.58728058      -0.00029940      -0.00014205      -0.00010886
P       11.44967386       9.13291750       8.82550796       0.00020842       0.00000020      -0.00007575
P       10.94201398      11.19044225       9.54873550       0.00032985       0.00013248      -0.00013223
P        9.02173240      11.58614319       8.43887716      -0.00023649       0.00000706      -0.00009669
P        7.85528327      11.07583660      10.29655200      -0.00015641       0.00056598      -0.00053682
P       12.06595313       8.45838979      10.85706974       0.00038423      -0.00032312      -0.00022197
P        9.78657786      10.68524623      11.38895935      -0.00048481      -0.00025174       0.00063333
P        9.88605801       8.44943886      11.31498056       0.00031080      -0.00027072       0.00025630
9
Lattice="19.85045687421745 0.0 0.0 0.0 19.85045687421745 0.0 0.0 0.0 19.85045687421745" Properties=species:S:1:pos:R:3:forces:R:3 config_type=qcd dft_energy=-46.37677324 gap_energy=-46.27423947395104 relaxed_gap_energy=-46.437000008434865 energy=-46.437000008434865 free_energy=-46.437000008434865 pbc="T T T"
P        9.11203063      10.51339878       7.92882735      -0.00008169      -0.00005934       0.00016304
P       11.33114765      10.51028819       7.74382312      -0.00031655      -0.00001750      -0.00036738
P       10.26703121       8.59902783       8.16054302       0.00056777      -0.00018317      -0.00007377
P        9.36899032      11.54947799       9.91643529      -0.00028899      -0.00006998      -0.00001394
P       11.08628208       8.70555373      10.26002834      -0.00014775      -0.00035215      -0.00000579
P       11.47276042      10.87000259      10.01133171       0.00028104       0.00021446       0.00035824
P        8.03220955      10.25307446      11.15919501       0.00005043       0.00028384       0.00007592
P        9.19068079       8.33576593      11.39223433      -0.00014095       0.00023819      -0.00036821
P        9.46592331       9.99046643      12.75463775       0.00007669      -0.00005436       0.00023188
10
Lattice="18.03016574421498 0.0 0.0 0.0 18.03016574421498 0.0 0.0 0.0 18.03016574421498" Properties=species:S:1:pos:R:3:forces:R:3 config_type=qcd dft_energy=-52.44868471 gap_energy=-50.810548802701454 relaxed_gap_energy=-51.319537387296954 energy=-51.319537387296954 free_energy=-51.319537387296954 pbc="T T T"
P        9.05536918       8.55450980       6.84626979       0.00001361       0.00009891      -0.00014175
P        7.12085589       9.62685776       6.83818198      -0.00013543       0.00021656       0.00001818
P        7.26052228       7.55488897       7.70015428      -0.00002174      -0.00008181       0.00042775
P        8.84337621      10.51076559       7.93428879       0.00022098       0.00006332       0.00015664
P       11.08035419       9.68600494       9.46540929      -0.00012065      -0.00072217      -0.00037861
P       10.21269313       7.62200391       9.25821901       0.00039039       0.00017621      -0.00025143
P        8.03397487       7.82189538       9.80049663      -0.00014209      -0.00014085      -0.00023548
P        7.91854396      10.00085008       9.92567041      -0.00024019      -0.00016440      -0.00042944
P        9.78290430      10.37662373      11.13554718      -0.00009177       0.00037707       0.00044514
P       10.84223469       8.39642857      11.24659134       0.00012688       0.00017717       0.00038899
11
Lattice="18.02486279756386 0.0 0.0 0.0 18.02486279756386 0.0 0.0 0.0 18.02486279756386" Properties=species:S:1:pos:R:3:forces:R:3 config_type=qcd dft_energy=-57.50626398 gap_energy=-57.422027439533835 relaxed_gap_energy=-57.54765120818773 energy=-57.54765120818773 free_energy=-57.54765120818773 pbc="T T T"
P        9.95504817       8.32744834       6.29233814       0.00053235      -0.00050603      -0.00010642
P        8.03736105       9.42521576       6.57026504       0.00027029       0.00071089       0.00042465
P        8.09171261       7.21625138       6.84866416       0.00029961      -0.00040284       0.00025751
P        8.14385562      10.29207683       8.65689476      -0.00033883       0.00077319       0.00022668
P       10.32390947      10.23581646       8.97143823      -0.00027157       0.00038092      -0.00030796
P        8.84624284       7.02406826       8.97407766      -0.00022632      -0.00040970       0.00015633
P       10.70234604       8.13021665       8.41985395      -0.00061977      -0.00011500      -0.00002710
P        7.48094381       8.54169559       9.81918970      -0.00025993       0.00016109      -0.00018043
P       10.43158813      10.01094721      11.21832648       0.00033055       0.00001651       0.00004633
P        8.57221454      11.04073698      11.58654373      -0.00041854      -0.00005218      -0.00037484
P        8.55152311       8.89227193      11.77915354       0.00070217      -0.00055686      -0.00011475
12
Lattice="18.01820442853139 0.0 0.0 0.0 18.01820442853139 0.0 0.0 0.0 18.01820442853139" Properties=species:S:1:pos:R:3:forces:R:3 config_type=qcd dft_energy=-63.18551664 gap_energy=-62.07954342839166 relaxed_gap_energy=-62.54054509402867 energy=-62.54054509402867 free_energy=-62.54054509402867 pbc="T T T"
P        9.26325594       9.97035967       6.46739206       0.00024072      -0.00024990      -0.00034719
P        8.36988414      11.65994546       7.60575866      -0.00009006       0.00064617       0.00004132
P       10.55868189      11.65051738       7.08946718      -0.00028146      -0.00028654       0.00001104
P       11.01707303       9.60214552       7.82583105       0.00033262      -0.00004344       0.00005477
P        9.49729536       7.01398858       8.84450378       0.00019517       0.00011446       0.00002254
P        7.84575249       8.46239414       8.35164032      -0.00016587      -0.00011001       0.00034674
P        8.17110708      10.37858523       9.45533928      -0.00013542       0.00001026       0.00029227
P       10.30015838      10.13163074       9.90258015      -0.00005956      -0.00019272      -0.00003151
P       10.22447745       8.04030039      10.66524374      -0.00011091       0.00016723      -0.00004832
P        8.03884320       5.92465482      10.23474622       0.00005536      -0.00040720      -0.00000589
P        6.61807204       7.61226426      10.03499912       0.00007828       0.00027227       0.00007368
P        8.20462558       7.66244037      11.63172502      -0.00005887       0.00007944      -0.00040944
13
Lattice="19.35305998673924 0.0 0.0 0.0 19.35305998673924 0.0 0.0 0.0 19.35305998673924" Properties=species:S:1:pos:R:3:forces:R:3 config_type=qcd dft_energy=-68.29565851 gap_energy=-66.8736072407006 relaxed_gap_energy=-67.29564676414485 energy=-67.29564676414485 free_energy=-67.29564676414485 pbc="T T T"
P       11.33862234      11.57508503       8.30194427      -0.00033542       0.00025803      -0.00023331
P       11.19788192       9.45581280       7.56926933       0.00026838       0.00074686      -0.00020285
P       13.15937057      10.32305682       8.15936114       0.00038287      -0.00081369      -0.00034694
P        8.44595920       9.78276854       8.53154976      -0.00009863      -0.00075639       0.00016909
P        8.92147258       7.73798091       9.26703196      -0.00080508       0.00024335       0.00017847
P        6.31818816       9.86773554       8.97088536       0.00049665       0.00048038       0.00043491
P       12.52926061      11.17911648      10.13960362       0.00022717       0.00093604       0.00006704
P       11.11214986       8.17543073       9.42190766       0.00050385      -0.00006705       0.00014041
P        9.19687616      10.96003482      10.27462770      -0.00007450       0.00018421      -0.00067583
P       10.97592942       9.76831647      10.94367557      -0.00029394      -0.00042003       0.00071339
P        8.37840124       8.01437693      11.43000869      -0.00000380      -0.00066608       0.00000435
P        6.36107890       8.81043431      10.91088031       0.00020078       0.00041735       0.00013577
P        7.85969896      10.14474052      11.87414452      -0.00046834      -0.00054297      -0.00038451
14
Lattice="22.47886411966393 0.0 0.0 0.0 22.47886411966393 0.0 0.0 0.0 22.47886411966393" Properties=species:S:1:pos:R:3:forces:R:3 config_type=qcd dft_energy=-74.30759326 gap_energy=-73.23539015491536 relaxed_gap_energy=-73.52064707686935 energy=-73.52064707686935 free_energy=-73.52064707686935 pbc="T T T"
P       12.05414117      10.32401350       7.67639636      -0.00039743       0.00041832       0.00027747
P       11.44192019      12.18895352       8.78760993       0.00020410      -0.00010936      -0.00012971
P       10.01575416       9.47023243       8.05379757       0.00001983       0.00007607      -0.00008285
P        9.43787115      11.31293039       9.23998592      -0.00009718      -0.00035341      -0.00004091
P       11.78310074       8.73338950       9.20093915       0.00011904      -0.00018795       0.00002951
P       12.50760480      11.82752963      10.69129544       0.00009951      -0.00026611       0.00057568
P       11.68454983       9.82095946      11.17252426      -0.00011410       0.00026401      -0.00012000
P        9.52710463      10.26353084      11.19235689      -0.00024815       0.00020626      -0.00034554
P       11.14773732      13.21719168      11.81761743       0.00021699       0.00053544       0.00022746
P        9.65310158      11.89563866      12.72868371       0.00057313      -0.00032036      -0.00033347
P       12.52492031      13.62581846      13.53988846      -0.00047575      -0.00012004      -0.00059319
P       13.01239143      11.47676057      13.84744813      -0.00046606       0.00013890       0.00027173
P       10.93037289      10.70076696      14.14540746       0.00012500      -0.00013912       0.00059374
P       11.63147863      12.49433324      15.25809814       0.00044107      -0.00014266      -0.00032992
15
Lattice="22.5309553103012 0.0 0.0 0.0 22.5309553103012 0.0 0.0 0.0 22.5309553103012" Properties=species:S:1:pos:R:3:forces:R:3 config_type=qcd dft_energy=-78.90798373 gap_energy=-78.18268372243551 relaxed_gap_energy=-78.51522445203523 energy=-78.51522445203523 free_energy=-78.51522445203523 pbc="T T T"
P       10.62886232      12.05083756       7.50824634      -0.00013321      -0.00020397      -0.00003076
P       12.79488492      12.59848230       7.42379720      -0.00032337       0.00038124       0.00041877
P       11.29791552      10.24074827       8.70379820       0.00021765       0.00074500       0.00015252
P       11.38687188      13.91589706       8.51502333       0.00045912      -0.00065208      -0.00029506
P       13.09485492      11.36988960       9.33455899      -0.00033123      -0.00036879      -0.00046695
P       10.17240686      10.17856068      10.61478136       0.00017428      -0.00007015      -0.00017434
P       12.02547667      12.99260414      10.46574423      -0.00023822      -0.00000583       0.00020668
P        9.94137463      12.35248539      10.95075877       0.00035408       0.00034140       0.00051585
P       11.91951551       9.64964216      11.92839579      -0.00037835       0.00009353      -0.00011248
P       10.24882692      12.32360117      13.17304678      -0.00016269      -0.00045936      -0.00002839
P       10.64133752       8.65130516      13.46970724       0.00018141       0.00040549       0.00042634
P       12.33361375      11.57210782      12.98690392      -0.00004335      -0.00035021      -0.00040411
P        9.22372029      10.37585823      13.62287574       0.00069875      -0.00012235      -0.00032736
P       10.62976858       9.92552755      15.29441306      -0.00032601       0.00003710      -0.00026893
P       12.64273454      10.78461774      14.99011386      -0.00014885       0.00022898       0.00038821
16
Lattice="22.0341554015123 0.0 0.0 0.0 22.0341554015123 0.0 0.0 0.0 22.0341554015123" Properties=species:S:1:pos:R:3:forces:R:3 config_type=qcd dft_energy=-85.03502417 gap_energy=-84.34382865116373 relaxed_gap_energy=-84.50937014709513 energy=-84.50937014709513 free_energy=-84.50937014709513 pbc="T T T"
P       11.95974887      12.87201130      11.35435026       0.00038571       0.00011716      -0.00009461
P        9.82174334      12.72789118      10.72179294      -0.00028020       0.00012243      -0.00020711
P       10.03832273      12.09682665       8.62295958      -0.00011932       0.00024538      -0.00043912
P       11.83784105      12.16789067      13.43749155       0.00014374      -0.00000652       0.00041886
P        7.79763521      11.93985628       8.32577323       0.00019653      -0.00013580       0.00004283
P       14.07878721      12.32132799      13.73463058      -0.00022950      -0.00009626      -0.00014237
P       14.83072208      11.27686378      11.91031028       0.00065187      -0.00009441       0.00029577
P       13.05172835      11.16733914      10.49933439      -0.00036388       0.00048804      -0.00073884
P       11.99580708       9.93734695      13.41124735       0.00017940      -0.00034811      -0.00001058
P       10.19633482       9.86628643       8.59661490      -0.00015722      -0.00009880       0.00002276
P        7.20343269      10.75734811      10.12384435      -0.00066028      -0.00005195      -0.00029330
P       12.21239231       9.30630207      11.31236595       0.00042941      -0.00033463       0.00049780
P        8.98242986      10.86679423      11.53482235       0.00032402      -0.00001147       0.00073257
P        7.95538447       9.71275215       8.29960302       0.00021398       0.00025412      -0.00006779
P       14.23651532      10.09422498      13.70829781      -0.00021582       0.00027998       0.00018363
P       10.07441780       9.16218136      10.67980468      -0.00049845      -0.00032915      -0.00020050
17
Lattice="24.12057462397061 0.0 0.0 0.0 24.12057462397061 0.0 0.0 0.0 24.12057462397061" Properties=species:S:1:pos:R:3:forces:R:3 config_type=qcd dft_energy=-89.41157278 gap_energy=-87.7250508212627 relaxed_gap_energy=-88.41546728056971 energy=-88.41546728056971 free_energy=-88.41546728056971 pbc="T T T"
P       12.86206293      12.53210601       9.05031048       0.00001877       0.00022106      -0.00035215
P       10.82255516      12.61304613       9.83375390      -0.00036833      -0.00022989      -0.00028409
P       14.06200449       9.85333620      10.92333181       0.00004290      -0.00013683      -0.00007452
P       10.70230132      14.64622322      10.77983494       0.00032936       0.00012866      -0.00001085
P       14.26251216      12.07522838      10.66582003      -0.00002836       0.00013271       0.00028406
P       11.88080859       9.68249070      10.72536722       0.00024912      -0.00012387       0.00016798
P        9.44843989      13.96582721      12.52310018      -0.00030337      -0.00034373       0.00019624
P       11.12776281      11.52687984      11.75530843      -0.00005695       0.00027255       0.00016550
P       14.25430883       9.90843192      13.16700593       0.00006847       0.00007774       0.00010143
P       12.68424447      14.69980593      11.72587639       0.00027901      -0.00004327      -0.00013103
P       12.97946086      12.58598774      12.41462121       0.00018436       0.00013135      -0.00005118
P       13.39088068       7.87237675      13.40297053       0.00029810      -0.00029675      -0.00002187
P       11.42247211       8.24338892      12.38891210      -0.00042894      -0.00048077      -0.00021872
P        9.92980627      15.77730580      13.72036175       0.00006232       0.00066801       0.00014112
P       10.86155181      13.83951146      14.26223696      -0.00005416      -0.00051944       0.00009723
P       12.16472922      15.56354654      13.73398344      -0.00015769       0.00009872      -0.00010515
P       12.16898272       9.63939157      13.95208902      -0.00013462       0.00044374       0.00009599
18
Lattice="21.09753305471077 0.0 0.0 0.0 21.09753305471077 0.0 0.0 0.0 21.09753305471077" Properties=species:S:1:pos:R:3:forces:R:3 config_type=qcd dft_energy=-95.83520714 gap_energy=-95.32980967747488 relaxed_gap_energy=-95.80319948421737 energy=-95.80319948421737 free_energy=-95.80319948421737 pbc="T T T"
P       12.49732216       9.38621449       7.02926403       0.00003597      -0.00009389      -0.00028818
P       14.07870062      10.87696354       7.51566566       0.00005712       0.00010699      -0.00008943
P       13.95517772       8.98399141       8.68229091      -0.00057471      -0.00016097       0.00003719
P       10.90219195       9.86603582       8.56017889       0.00047283       0.00001975      -0.00001045
P       10.95142587      12.05821802       8.24479044      -0.00014142      -0.00031975       0.00016147
P       13.05895292      12.43416152       8.79402729      -0.00010978       0.00026372      -0.00006488
P       12.35274525       9.46566504      10.20498727      -0.00020922       0.00004581       0.00027733
P       13.17524330      11.44439518      10.76670535       0.00000060       0.00030138       0.00004958
P        9.92063315      12.69161497      10.12737736       0.00010511      -0.00035103       0.00026340
P        8.45385656      11.00293383      10.19021046      -0.00072076       0.00038138      -0.00010376
P       11.35759243      12.29508340      11.75684519       0.00024561       0.00015672       0.00002400
P        7.40505025      11.57121702      12.05930340       0.00037233      -0.00025673      -0.00007976
P        9.72046865       9.38221725      10.99531988       0.00070960      -0.00007828       0.00036472
P        6.44916162       9.55012730      12.40292589      -0.00011837      -0.00021121      -0.00053693
P        8.85547483      11.17109928      13.70387487      -0.00000599       0.00033651       0.00058113
P       10.67808551      10.38934129      12.71248421       0.00006794      -0.00052608      -0.00048169
P        8.15842720       8.16070365      12.07560505      -0.00008010      -0.00002401      -0.00000863
P        7.90728748       9.14781450      14.05594133      -0.00010678       0.00040969      -0.00009509
19
Lattice="22.85193500446088 0.0 0.0 0.0 22.85193500446088 0.0 0.0 0.0 22.85193500446088" Properties=species:S:1:pos:R:3:forces:R:3 config_type=qcd dft_energy=-100.10120622 gap_energy=-97.64299446553788 relaxed_gap_energy=-99.05518804193572 energy=-99.05518804193572 free_energy=-99.05518804193572 pbc="T T T"
P       13.01999082      13.50698810       7.96934841       0.00031764       0.00017837       0.00013866
P       14.53875249      13.96932510       9.55371537      -0.00026105      -0.00076517      -0.00023321
P       11.05149673      13.61296720       9.02361534       0.00002895       0.00034732       0.00011656
P       10.59334875      11.41173563       8.99576343       0.00011375      -0.00050278      -0.00017081
P       13.81115013      11.88815047       9.27597758      -0.00018760       0.00045526      -0.00024305
P        8.41356271      11.66035743       9.47225077      -0.00018901       0.00029394      -0.00000039
P       11.66061585      14.05688512      11.10723109       0.00021386       0.00009006       0.00018044
P       13.58555911      12.90685547      11.25955834      -0.00016707      -0.00032581      -0.00008841
P       11.50294443      10.78783243      10.90718949       0.00022478       0.00029601      -0.00010076
P       10.02314573       9.27871478      11.54267821      -0.00039094      -0.00002210       0.00002434
P        8.03709714      10.24861505      11.14885659       0.00050514       0.00013299       0.00038221
P        8.41070277      12.42514760      11.59033761       0.00014426      -0.00026219      -0.00022048
P       10.41740269      12.42399809      12.03455586      -0.00036964      -0.00020653      -0.00023228
P       13.01156833       8.93236610      12.77798896       0.00015921       0.00023593       0.00022080
P        9.98482896       9.64872570      13.76042271       0.00016933       0.00004296      -0.00020903
P       11.58626768       8.19187715      14.31871073       0.00015252      -0.00004562       0.00001460
P       11.00840055      11.59349907      14.04302199      -0.00039659      -0.00007315       0.00025115
P       13.10148634      11.08345491      13.40176382      -0.00010768       0.00032331       0.00037074
P       13.33506133       9.46588716      14.91039623       0.00004015      -0.00019281      -0.00020109
20
Lattice="23.95836024783376 0.0 0.0 0.0 23.95836024783376 0.0 0.0 0.0 23.95836024783376" Properties=species:S:1:pos:R:3:forces:R:3 config_type=qcd dft_energy=-106.52065656 gap_energy=-106.45108141166959 relaxed_gap_energy=-106.66370187364767 energy=-106.66370187364767 free_energy=-106.66370187364767 pbc="T T T"
P        9.53316674      10.32478473       6.88096938      -0.00050040      -0.00007825       0.00027997
P       11.70472491      10.00099660       6.43631184       0.00053916      -0.00053099       0.00025914
P       10.05739207      12.18399244       8.05883864       0.00074472      -0.00005798       0.00021530
P       12.21818876      11.86155193       7.61676321      -0.00050155       0.00017707      -0.00021438
P       10.67473476       8.74724237       7.96199991      -0.00048302       0.00049979      -0.00037158
P        9.71490304      11.27691358      10.05120276      -0.00018199      -0.00002140      -0.00002503
P       13.03137842      10.78157804       9.37232818       0.00041773       0.00015768       0.00007054
P       11.21863212       9.66177924       9.95479683       0.00048857      -0.00021671      -0.00023381
P       10.80336459      12.79096295      11.28948941      -0.00014774       0.00005404      -0.00002872
P       12.97604135      12.46660458      10.84473782      -0.00009957       0.00012448      -0.00017761
P       13.15556441      11.16741404      12.66887985      -0.00030598      -0.00031723      -0.00013662
P       10.98280391      11.49153123      13.11347505      -0.00002484      -0.00016329       0.00002497
P       14.24350523      12.68176132      13.90719983      -0.00032789       0.00047147       0.00001049
P       12.73933852      14.29660188      14.00366734       0.00027995      -0.00021181      -0.00044934
P       10.92681845      13.17640989      14.58599553      -0.00003406       0.00016339       0.00054160
P       13.90087231      11.77448655      15.89943144      -0.00004780       0.00004547       0.00032459
P       11.74013175      12.09674591      16.34173413       0.00011492      -0.00007431      -0.00020870
P       13.28351539      15.21114335      15.99634594       0.00022232       0.00000678       0.00028969
P       14.42506249      13.63363365      17.07743069       0.00012164      -0.00000434      -0.00008623
P       12.25346326      13.95746820      17.52200473      -0.00027416      -0.00002387      -0.00008425
21
Lattice="23.0 0.0 0.0 0.0 23.0 0.0 0.0 0.0 23.0" Properties=species:S:1:pos:R:3:forces:R:3 config_type=qcd dft_energy=-111.36503091 gap_energy=-111.16667378205797 relaxed_gap_energy=-111.5076481788948 energy=-111.5076481788948 free_energy=-111.5076481788948 pbc="T T T"