3
Lattice="22.9706487125 0.0 0.0 0.0 22.9706487125 0.0 0.0 0.0 22.9706487125" Properties=species:S:1:pos:R:3:forces:R:3 config_type=qcd dft_energy=-7.02647089 gap_energy=-7.253568772975594 relaxed_gap_energy=-7.261197063821765 energy=-7.261197063821765 free_energy=-7.261197063821765 pbc="T T T"
Pb      10.16436336      12.18441403      10.63388725      -0.00009669       0.00007447      -0.00017857
Pb      11.36190863      11.19572799      13.17637447       0.00020542      -0.00007870      -0.00001734
Pb      12.92970108      11.07583104      10.64571136      -0.00010873       0.00000423       0.00019592
4
Lattice="17.04875947211561 0.0 0.0 0.0 17.04875947211561 0.0 0.0 0.0 17.04875947211561" Properties=species:S:1:pos:R:3:forces:R:3 config_type=qcd dft_energy=-10.88098998 gap_energy=-10.41321686101278 relaxed_gap_energy=-10.44841477869259 energy=-10.44841477869259 free_energy=-10.44841477869259 pbc="T T T"
Pb       7.61058199       9.30703963       7.38107044      -0.00058422      -0.00053781       0.00005566
Pb       9.62187558      10.68011509       9.12273710       0.00027890      -0.00046014      -0.00012920
Pb       9.42470332       7.74498019       9.68048689      -0.00001415       0.00028251       0.00045133
Pb       7.44035806       6.36538403       7.91322452       0.00031948       0.00071544      -0.00037779
5
Lattice="17.45184260924769 0.0 0.0 0.0 17.45184260924769 0.0 0.0 0.0 17.45184260924769" Properties=species:S:1:pos:R:3:forces:R:3 config_type=qcd dft_energy=-14.3621326 gap_energy=-13.499125469476063 relaxed_gap_energy=-14.403304593765547 energy=-14.403304593765547 free_energy=-14.403304593765547 pbc="T T T"
Pb       8.66290807       7.47124074       7.29777696      -0.00011457       0.00028382       0.00038267
Pb       8.69903730      10.59124812       8.35492994       0.00042977      -0.00045208       0.00007047
Pb      11.17125340       8.73745487       8.60775335      -0.00045160       0.00022532       0.00000211
Pb       6.28061443       8.71435446       8.84409709       0.00020783      -0.00017407      -0.00000605
Pb       8.81579332       8.11530834      10.52504919      -0.00007143       0.00011701      -0.00044919
6
Lattice="17.35194114978472 0.0 0.0 0.0 17.35194114978472 0.0 0.0 0.0 17.35194114978472" Properties=species:S:1:pos:R:3:forces:R:3 config_type=qcd dft_energy=-18.3395104 gap_energy=-17.418160664468424 relaxed_gap_energy=-17.93164289449286 energy=-17.93164289449286 free_energy=-17.93164289449286 pbc="T T T"
Pb      10.57467098       8.94139472       7.50575342      -0.00037279      -0.00014382       0.00003328
Pb       8.59086914       6.52077312       8.04906579       0.00003903       0.00060187       0.00049123
Pb       9.87305896       8.10179800      10.48787823      -0.00043895       0.00013473      -0.00067233
Pb       7.47885031       9.25007695       6.86407394       0.00031667      -0.00017858       0.00065521
Pb       6.77737309       8.41057506       9.84645908       0.00050064      -0.00000314      -0.00061084
Pb       8.76100097      10.83120561       9.30259298      -0.00004460      -0.00041107       0.00010345
7
Lattice="24.8329789657 0.0 0.0 0.0 24.8329789657 0.0 0.0 0.0 24.8329789657" Properties=species:S:1:pos:R:3:forces:R:3 config_type=qcd dft_energy=-22.19530353 gap_energy=-21.62973471497086 relaxed_gap_energy=-21.72391074850683 energy=-21.72391074850683 free_energy=-21.72391074850683 pbc="T T T"
Pb      14.27813533      12.50182598      10.48557611      -0.00042197      -0.00005483       0.00052159
Pb      12.10705929      10.66546955      12.04080477       0.00009667       0.00060951       0.00013927
Pb      14.77787806      11.76416521      13.51188130      -0.00060644       0.00018003      -0.00033307
Pb       9.80648585      12.76692965      12.93283897       0.00077041      -0.00014201      -0.00004344
Pb      12.01428100      11.92803210      15.02440937      -0.00002073       0.00014589      -0.00077317
Pb      12.72590701      14.16749654      12.79220249      -0.00010737      -0.00056190      -0.00014389
Pb      11.20567986      13.12150735      10.12771339       0.00028943      -0.00017667       0.00063271
8
Lattice="17.2670507578362 0.0 0.0 0.0 17.2670507578362 0.0 0.0 0.0 17.2670507578362" Properties=species:S:1:pos:R:3:forces:R:3 config_type=qcd dft_energy=-25.07263684 gap_energy=-24.384296655602927 relaxed_gap_energy=-24.943622693864686 energy=-24.943622693864686 free_energy=-24.943622693864686 pbc="T T T"
Pb      10.74712303       6.64238138       8.69297881       0.00057131      -0.00011388       0.00021208
Pb       9.20062731       7.58728728      11.28315460      -0.00055778      -0.00011619      -0.00010736
Pb      10.48160212       9.76038519       9.32666184       0.00004935       0.00011868      -0.00005040
Pb       7.55479772       6.63472766       8.71840432       0.00007379       0.00036479      -0.00041955
Pb       9.27912216       8.43676407       6.53978640       0.00017588      -0.00052011      -0.00046927
Pb       7.23302138       9.68556610       9.96454265      -0.00007729       0.00018750      -0.00032773
Pb       8.36899009      11.31737651       7.49682060      -0.00007074       0.00011961       0.00017964
Pb       6.20291923       9.00371484       7.04585381      -0.00016452      -0.00004040       0.00098259
9
Lattice="25.65620699375257 0.0 0.0 0.0 25.65620699375257 0.0 0.0 0.0 25.65620699375257" Properties=species:S:1:pos:R:3:forces:R:3 config_type=qcd dft_energy=-28.90906214 gap_energy=-28.428172960698546 relaxed_gap_energy=-28.476872628842244 energy=-28.476872628842244 free_energy=-28.476872628842244 pbc="T T T"
Pb      13.21458829      14.71381170      10.25953187       0.00019510       0.00039352      -0.00013387
Pb      14.11534866      13.60840330      13.11722750      -0.00077860      -0.00044689       0.00015902
Pb      12.17953736      14.47788229      15.50404947       0.00023207       0.00006861      -0.00006523
Pb      11.02947470      14.76510784      12.56026035       0.00002856      -0.00001365       0.00013279
Pb      11.00719872      11.84400015      14.09362597       0.00000940      -0.00001868      -0.00023725
Pb      13.78526080      11.75685108      15.69853773       0.00018531       0.00018052      -0.00007414
Pb      11.64014915      11.98829466      10.88668519      -0.00031101      -0.00015898       0.00020321
Pb      13.66106874      10.30573242      12.87899793      -0.00001082       0.00003476       0.00012167
Pb      14.82030504      11.99284803      10.45401548       0.00044999      -0.00003921      -0.00010620
10
Lattice="17.662259 0.0 0.0 0.0 17.662259 0.0 0.0 0.0 17.662259" Properties=species:S:1:pos:R:3:forces:R:3 config_type=qcd dft_energy=-32.33315639 gap_energy=-31.502414736591334 relaxed_gap_energy=-31.63521411373914 energy=-31.63521411373914 free_energy=-31.63521411373914 pbc="T T T"
Pb       5.61737237       9.32010680       7.21492525      -0.00005782      -0.00011384       0.00010031
Pb       8.20861811       7.68193288       6.82279063      -0.00014443       0.00010352      -0.00014019
Pb       6.75144709       8.36652519       9.92726098       0.00002610       0.00005113      -0.00010074
Pb       8.10604456      10.96627021       8.02013093      -0.00012034      -0.00013696      -0.00012382
Pb      10.63077341       9.74291230       6.48426817      -0.00035823      -0.00022856       0.00073347
Pb       8.41870110      10.78221532      11.19781317       0.00023946      -0.00052341      -0.00067247
Pb      11.15326920       7.31689865       8.41626528       0.00021137      -0.00043304      -0.00038900
Pb       8.57451133       5.79613661       9.37993098       0.00008289       0.00087336      -0.00018059
Pb       9.79316217       7.95589451      11.31406018      -0.00016954      -0.00020533       0.00068607
Pb      11.05739566      10.38240253       9.53384943       0.00029054       0.00061313       0.00008697
10
Lattice="17.91609270319384 0.0 0.0 0.0 17.91609270319384 0.0 0.0 0.0 17.91609270319384" Properties=species:S:1:pos:R:3:forces:R:3 config_type=qcd dft_energy=-32.31433673 gap_energy=-31.69180136197282 relaxed_gap_energy=-32.10225128110376 energy=-32.10225128110376 free_energy=-32.10225128110376 pbc="T T T"
Pb       6.91018210      11.46699969       7.80147501       0.00014367      -0.00018591       0.00024292
Pb       7.41048272      10.32013868      10.69500553       0.00019618       0.00060518       0.00018709
Pb      11.50444769       8.80973132       8.08551695       0.00015998      -0.00000259      -0.00013978
Pb       9.89057194      11.48417289       8.82817865       0.00009571      -0.00021590      -0.00022200
Pb      11.00612317       6.44916629      10.11447355      -0.00026533       0.00012043      -0.00010554
Pb       9.06425550       6.61084153       7.63645334       0.00030697      -0.00012542      -0.00053242
Pb       6.43974110       8.37460324       8.19256039       0.00004309      -0.00055300       0.00012701
Pb       7.99733114       7.16393492      10.72596176      -0.00049566      -0.00027208       0.00024327
Pb       8.91995027       9.53815534       6.32569737      -0.00006422       0.00031991      -0.00012134
Pb      10.43737788       9.36271963      11.17514095      -0.00012038       0.00030938       0.00032079
10
Lattice="18.31662435760201 0.0 0.0 0.0 18.31662435760201 0.0 0.0 0.0 18.31662435760201" Properties=species:S:1:pos:R:3:forces:R:3 config_type=qcd dft_energy=-32.30262752 gap_energy=-31.225301144753004 relaxed_gap_energy=-32.006825220516674 energy=-32.006825220516674 free_energy=-32.006825220516674 pbc="T T T"
Pb      11.07574650      10.55524259       7.36215087       0.00017396       0.00012026      -0.00057356
Pb      11.35175619      11.22849811      10.45269700      -0.00013839      -0.00075689      -0.00002840
Pb      10.53475263       7.50118307       6.68246705      -0.00012547      -0.00012507       0.00019358
Pb      10.54444424       8.23811681       9.76751403       0.00023416       0.00020842      -0.00037218
Pb       8.77616208      10.12540599      11.94630053      -0.00048248       0.00048004       0.00026823
Pb       8.53547554      11.70209176       9.08432509      -0.00013563      -0.00027298       0.00011271
Pb       8.04194703       9.45022625       6.80606702      -0.00018037      -0.00012347       0.00063360
Pb       8.13780798       7.05335940      11.46004203       0.00006200      -0.00058751       0.00033741
Pb       7.99142547       6.54940084       8.32837271       0.00048646       0.00070656       0.00001202
Pb       6.59360413       9.17959696       9.69318545       0.00010577       0.00035064      -0.00058342
11
Lattice="18.9618117574863 0.0 0.0 0.0 18.9618117574863 0.0 0.0 0.0 18.9618117574863" Properties=species:S:1:pos:R:3:forces:R:3 config_type=qcd dft_energy=-35.35886591 gap_energy=-35.1150663072123 relaxed_gap_energy=-35.461593307293484 energy=-35.461593307293484 free_energy=-35.461593307293484 pbc="T T T"
Pb      11.79007540      10.02235327       7.80125902      -0.00043440       0.00008179       0.00011231
Pb       8.60087946       8.93035777       7.45727671       0.00034256      -0.00019725       0.00041195
Pb      11.13205911       6.97726062       7.55859039      -0.00003513       0.00066864      -0.00026832
Pb       9.50810458      12.10304942       8.22765813      -0.00024919      -0.00049474       0.00022521
Pb       6.53140001      11.17209250       8.41785602       0.00044850      -0.00023939       0.00045783
Pb       9.09025549       6.63129204       9.89825103      -0.00018437       0.00043470      -0.00018924
Pb      11.28663451      11.19051252      10.80392642       0.00040907       0.00019569      -0.00066555
Pb       6.80815666       8.71186125      10.32432461       0.00017011       0.00059639      -0.00014521
Pb      11.99088058       8.06404578      10.42102455      -0.00003656      -0.00039330       0.00054876
Pb       9.44699810       8.88001414      12.23253701      -0.00004037      -0.00040977       0.00024813
Pb       8.10452078      11.60712537      11.14726079      -0.00039022      -0.00024277      -0.00073587
12
Lattice="18.14469486158367 0.0 0.0 0.0 18.14469486158367 0.0 0.0 0.0 18.14469486158367" Properties=species:S:1:pos:R:3:forces:R:3 config_type=qcd dft_energy=-38.966509 gap_energy=-38.43871486435229 relaxed_gap_energy=-39.65137066777034 energy=-39.65137066777034 free_energy=-39.65137066777034 pbc="T T T"
Pb      12.12490185       8.57976434       9.16666526       0.00004317      -0.00010832      -0.00003589
Pb       9.99031585       6.22118239       9.84557779       0.00026609       0.00016290       0.00029148
Pb      10.26489760       7.33993913       6.80375790      -0.00018198       0.00016759      -0.00001826
Pb      10.33378175       8.73823452      11.87712272       0.00002922      -0.00024059       0.00016113
Pb       7.32407452       6.73217537       8.05390170       0.00043213       0.00003688       0.00007407
Pb       7.36686559       7.59631934      11.18952310      -0.00067603       0.00004143      -0.00054083
Pb      10.77798382      10.54839702       6.95528544       0.00006082      -0.00014704       0.00010023
Pb       7.81097872       9.40649948       6.26751616      -0.00019932       0.00000036       0.00024125
Pb      10.82052645      11.41253803      10.09088445      -0.00004473       0.00008508      -0.00042768
Pb       6.01973581       9.56488606       8.97802676       0.00035860       0.00021653      -0.00001689
Pb       7.87972012      10.80476040      11.34087800       0.00027625      -0.00012231       0.00019309
Pb       8.15438709      11.92347307       8.29902989      -0.00036423      -0.00009249      -0.00002169
13
Lattice="26.8758295284929 0.0 0.0 0.0 26.8758295284929 0.0 0.0 0.0 26.8758295284929" Properties=species:S:1:pos:R:3:forces:R:3 config_type=qcd dft_energy=-42.45721176 gap_energy=-42.03748709005858 relaxed_gap_energy=-42.154239180068764 energy=-42.154239180068764 free_energy=-42.154239180068764 pbc="T T T"
Pb      13.43791477      13.43791476      13.43791476      -0.00000001      -0.00000000      -0.00000001
Pb      13.43801768      13.43791478      16.61295518      -0.00001714       0.00000000       0.00034488
Pb      14.31575068      10.73727349      14.85802809      -0.00050049      -0.00008964      -0.00060091
Pb      11.14048384      11.76883120      14.85792855       0.00003809      -0.00030641      -0.00010235
Pb      11.14048380      15.10699830      14.85792854       0.00003809       0.00030640      -0.00010235
Pb      14.31575062      16.13855607      14.85802806      -0.00050049       0.00008964      -0.00060091
Pb      16.27777624      13.43791480      14.85789981       0.00019310       0.00000000      -0.00017918
Pb      12.56007891      10.73727346      12.01780146       0.00050049      -0.00008963       0.00060091
Pb      10.59805329      13.43791473      12.01792972      -0.00019308      -0.00000000       0.00017918
Pb      12.56007885      16.13855604      12.01780144       0.00050049       0.00008964       0.00060090
Pb      15.73534569      15.10699832      12.01790098      -0.00003809       0.00030641       0.00010234
Pb      15.73534573      11.76883123      12.01790099      -0.00003809      -0.00030641       0.00010235
Pb      13.43781185      13.43791475      10.26287434       0.00001713       0.00000000      -0.00034486
14
Lattice="20.49058304176696 0.0 0.0 0.0 20.49058304176696 0.0 0.0 0.0 20.49058304176696" Properties=species:S:1:pos:R:3:forces:R:3 config_type=qcd dft_energy=-45.42269807 gap_energy=-44.753169321768745 relaxed_gap_energy=-45.271152985356345 energy=-45.271152985356345 free_energy=-45.271152985356345 pbc="T T T"
Pb       9.95587896       8.81516131       6.70195678      -0.00031725       0.00018508      -0.00009005
Pb      10.72595095      11.88222224       7.20518133       0.00084760       0.00022082      -0.00018373
Pb       7.77401105      10.98412672       7.87726909      -0.00020360      -0.00054599      -0.00021270
Pb      12.63616676       9.38869481       8.24560715      -0.00027383       0.00021009      -0.00021264
Pb       7.49864155       7.86425275       8.36055916       0.00045992       0.00001196       0.00021042
Pb      10.37008289       7.62887707       9.81294429       0.00003764       0.00037959       0.00070231
Pb      12.65535681      12.25912180       9.60937718      -0.00018583      -0.00017054       0.00002749
Pb       9.36911181      12.63494990      10.19515660       0.00025234      -0.00007916       0.00021570
Pb       7.72929625       9.71412177      10.88453524      -0.00023401      -0.00010550       0.00021063
Pb      12.62391730       9.54438575      11.49334534      -0.00016259       0.00025771       0.00003527
Pb      11.74672879      12.69613379      12.49829595       0.00033905      -0.00017176      -0.00031491
Pb       9.83604724       8.30405079      12.84522209      -0.00034325      -0.00006008      -0.00056623
Pb       8.89998484      11.43561725      13.23708376       0.00002694      -0.00024982       0.00056265
Pb      11.61290610      10.28236536      14.46754732      -0.00024312       0.00011760      -0.00038421
15
Lattice="19.08041985109558 0.0 0.0 0.0 19.08041985109558 0.0 0.0 0.0 19.08041985109558" Properties=species:S:1:pos:R:3:forces:R:3 config_type=qcd dft_energy=-49.35160841 gap_energy=-48.826833916880744 relaxed_gap_energy=-48.93187553741575 energy=-48.93187553741575 free_energy=-48.93187553741575 pbc="T T T"
Pb      12.79543140      10.33896255      10.30491653       0.00010524       0.00030956      -0.00039640
Pb      10.61267686      10.14624624      12.80873673      -0.00012195       0.00047709       0.00032728
Pb      11.77332840       7.47629595      11.18804993       0.00009297      -0.00046270       0.00024922
Pb      10.45895909      12.65070840      10.86769515       0.00012020       0.00019645      -0.00011580
Pb      11.57042234       7.99567282       7.78759180       0.00002647       0.00006741      -0.00034134
Pb       8.65331343       7.69815813      12.32956378       0.00013298      -0.00062814       0.00005205
Pb      11.53156738      11.87892120       7.86076704      -0.00040370      -0.00027330       0.00017926
Pb       9.52981832       9.56947886       9.50654306       0.00074570       0.00030028       0.00047410
Pb       8.39040422      12.63830327       8.43968911      -0.00013688      -0.00028610      -0.00027585
Pb       9.46286267       6.04777689       9.54990007      -0.00049863       0.00007790       0.00002375
Pb       9.33201319      10.38132960       6.16678284      -0.00015934      -0.00044230       0.00021090
Pb       8.25330857       7.49710031       7.00000310       0.00034825       0.00047112      -0.00000856
Pb       7.58298640      10.87613600      11.53102400       0.00001987      -0.00008948       0.00020469
Pb       6.62609930       7.75133087       9.89917345      -0.00026087      -0.00005055      -0.00028551
Pb       6.52995730      10.15672778       7.86271231      -0.00001029       0.00033274      -0.00029778
16
Lattice="19.4503670835449 0.0 0.0 0.0 19.4503670835449 0.0 0.0 0.0 19.4503670835449" Properties=species:S:1:pos:R:3:forces:R:3 config_type=qcd dft_energy=-52.38775137 gap_energy=-51.978334133567486 relaxed_gap_energy=-52.32460404385827 energy=-52.32460404385827 free_energy=-52.32460404385827 pbc="T T T"
Pb       9.94105039       6.16776718       9.54793328       0.00000410      -0.00002139       0.00025194
Pb       8.38418784       7.67646405       7.21582972      -0.00020817      -0.00004190      -0.00017591
Pb      11.73261351       8.25023723       7.53920000       0.00030942      -0.00056586      -0.00047436
Pb      11.99698061       7.71473339      11.51816156       0.00012339       0.00024001       0.00024112
Pb       9.42239121      10.40900138       6.24714637      -0.00017053       0.00004922       0.00001536
Pb       9.78743982       9.70775631       9.74813602      -0.00086101      -0.00002880       0.00010567
Pb       6.92768254       7.50825160       9.99691460       0.00002737      -0.00023427       0.00000210
Pb       9.05994631       7.42271851      12.47256536       0.00046897      -0.00004059      -0.00029476
Pb       7.09568994       9.86965554      12.11699897       0.00018345       0.00037851       0.00008290
Pb       6.82034350      10.54576793       8.64948710      -0.00010476       0.00021301      -0.00030774
Pb      13.21178758      10.10851493      10.06501132      -0.00037599       0.00025824      -0.00006064
Pb      12.03846601      11.56203016       7.58839266       0.00047837       0.00000051       0.00035131
Pb      10.37084919      10.45073432      12.89388459       0.00006964       0.00005118      -0.00013163
Pb       9.11992438      12.90337066       8.19302243      -0.00000044       0.00008266       0.00001569
Pb      11.40778087      12.74648583      10.60552005      -0.00009627      -0.00017823       0.00031525
Pb       8.28580297      12.55944765      11.20473262       0.00015246      -0.00016228       0.00006369
16
Lattice="20.96205887068612 0.0 0.0 0.0 20.96205887068612 0.0 0.0 0.0 20.96205887068612" Properties=species:S:1:pos:R:3:forces:R:3 config_type=qcd dft_energy=-52.36617493 gap_energy=-50.65867285375532 relaxed_gap_energy=-52.32758778950816 energy=-52.32758778950816 free_energy=-52.32758778950816 pbc="T T T"
Pb      10.90814480       9.80322187       6.89768958       0.00019904       0.00012779       0.00000416
Pb       9.57025311      12.47199777       7.69319115      -0.00001712      -0.00018413       0.00047365
Pb       7.91893347       9.62657643       8.30682126      -0.00024775       0.00039710       0.00037365
Pb      12.80586766      12.03681497       8.43574286      -0.00010161      -0.00044206      -0.00041055
Pb      10.30855993       7.31301912       8.81759316      -0.00000191       0.00019316      -0.00027077
Pb      10.43352125      10.57998038      10.42744470       0.00036618       0.00000498      -0.00035773
Pb      13.16597823       8.72163173       8.89026628       0.00004566       0.00006337       0.00038690
Pb       8.23494999       7.87905753      11.06298859       0.00019334      -0.00016296       0.00039656
Pb      13.88553985      10.66059823      11.21016741      -0.00001995      -0.00010730       0.00024358
Pb       8.91777076      13.66259448      10.46938227       0.00014180       0.00016124      -0.00079226
Pb      11.71133648       7.90907439      11.87360950      -0.00024725       0.00004699      -0.00045067
Pb       7.18127527      10.96403249      11.42286555      -0.00018353      -0.00040384       0.00028625
Pb      12.07024473      13.36943019      11.55324763       0.00000012       0.00037259       0.00037557
Pb       9.16777200       9.37210187      13.62433199       0.00005746      -0.00019299      -0.00023212
Pb      12.02697315      10.77751355      13.69898585      -0.00013729      -0.00000913      -0.00007318
Pb       9.38935030      12.54882594      13.31214319      -0.00004719       0.00013521       0.00004697
17
Lattice="19.08245677319299 0.0 0.0 0.0 19.08245677319299 0.0 0.0 0.0 19.08245677319299" Properties=species:S:1:pos:R:3:forces:R:3 config_type=qcd dft_energy=-55.90960538 gap_energy=-55.4754630245947 relaxed_gap_energy=-55.76070076836418 energy=-55.76070076836418 free_energy=-55.76070076836418 pbc="T T T"
Pb       8.55311338      13.12535928       8.80746011       0.00071649      -0.00001155       0.00031317
Pb       8.99553005      12.49633508      11.84570048      -0.00075038      -0.00052261       0.00005723
Pb      11.65747996      12.31666977       9.95981602       0.00039749       0.00070681      -0.00005702
Pb      10.69115276      11.95281195       6.85275855      -0.00019293      -0.00004139       0.00018104
Pb       6.42994616      11.03935157      10.15729225      -0.00066772       0.00014876      -0.00002240
Pb      12.63031749       9.63901465       8.13820282      -0.00018466      -0.00008087      -0.00015420
Pb       9.48566687       9.80120301       9.58845010       0.00001552      -0.00035779       0.00018908
Pb       7.76610306       9.82275117      12.89493028       0.00043075       0.00061652      -0.00054667
Pb      11.10552373      10.08493341      12.54302071      -0.00008091       0.00022547      -0.00013015
Pb      11.26286232       6.70598895       7.60069094       0.00009821       0.00008882      -0.00046406
Pb       9.45437331       7.21903825      12.61718108       0.00041376      -0.00030160      -0.00016842
Pb      10.28794721       9.05244398       5.78769914      -0.00010290      -0.00045255       0.00028967
Pb       7.60020748      10.62207182       6.91614256       0.00021449      -0.00009870       0.00035945
Pb      12.05245207       7.51878772      10.65615231       0.00015078       0.00007516       0.00040809
Pb       6.85713595       7.72214939      10.53969632       0.00008837      -0.00011634      -0.00004126
Pb       9.36543151       5.71961422       9.88043515      -0.00047779      -0.00003898       0.00024375
Pb       8.00563926       7.36235835       7.41525378      -0.00006860       0.00016085      -0.00045730
18
Lattice="19.13250892955726 0.0 0.0 0.0 19.13250892955726 0.0 0.0 0.0 19.13250892955726" Properties=species:S:1:pos:R:3:forces:R:3 config_type=qcd dft_energy=-59.02929913 gap_energy=-58.37968177021872 relaxed_gap_energy=-58.62751973133943 energy=-58.62751973133943 free_energy=-58.62751973133943 pbc="T T T"
Pb      12.48709062      10.97484614       9.51255311      -0.00021010       0.00017625       0.00021177
Pb      12.42678110       7.79392901      10.66273566      -0.00019712      -0.00030647      -0.00035129
Pb      11.67673967      10.02376570      12.76476289       0.00046550      -0.00038707       0.00012326
Pb      12.20172767       8.03843856       7.61131795       0.00055137       0.00035123       0.00035624
Pb      11.45313070       8.59740316       4.67851270       0.00025428       0.00004978      -0.00023148
Pb      10.75071832      11.00479463       6.46327058      -0.00037089       0.00028889      -0.00042061
Pb       9.89240920      12.97130133       8.65810268      -0.00005230      -0.00001677      -0.00002187
Pb       9.67316229       6.33266428       9.34604758       0.00007257      -0.00014831       0.00032976
Pb       9.40282206       9.65053847       9.99049462      -0.00041045      -0.00020081       0.00019667
Pb       8.93866063       8.01665422       6.35592952       0.00006984      -0.00049250      -0.00002063
Pb      10.39917997      12.63522368      11.75364211      -0.00034501      -0.00004334       0.00008453
Pb      10.03794572       7.31749254      12.66747272      -0.00031109       0.00039060       0.00029617
Pb       8.24307253      10.24517763      12.99217021       0.00064275      -0.00016658      -0.00064515
Pb       5.85055357       9.98340497      10.52265256      -0.00004380      -0.00017509       0.00033945
Pb       6.73011144       7.75409922       8.47116049       0.00012713       0.00013735      -0.00015035
Pb       7.41837006      10.93999167       7.56241802      -0.00031211       0.00009765       0.00001224
Pb       7.44499269      12.61462262      10.61691483       0.00049776       0.00043791      -0.00002861
Pb       7.16511216       7.29823255      11.56242216      -0.00042834       0.00000726      -0.00008010
19
Lattice="21.22464641545047 0.0 0.0 0.0 21.22464641545047 0.0 0.0 0.0 21.22464641545047" Properties=species:S:1:pos:R:3:forces:R:3 config_type=qcd dft_energy=-62.15438209 gap_energy=-61.99097918699377 relaxed_gap_energy=-62.39676677352712 energy=-62.39676677352712 free_energy=-62.39676677352712 pbc="T T T"
Pb      11.40862980      10.18400102       6.39393171       0.00045908      -0.00018841      -0.00025675
Pb       8.31015148      10.17661683       7.29207326      -0.00016933       0.00044825      -0.00056864
Pb       9.95137903      12.93944027       7.34402327      -0.00038046       0.00008680      -0.00009190
Pb      13.03339194      12.38615527       8.10807213      -0.00013258       0.00061141      -0.00018979
Pb      10.29296285       7.77793010       8.29335133       0.00065358      -0.00034014       0.00033886
Pb      13.33762594       9.10683211       8.80690979      -0.00004483      -0.00008801      -0.00045207
Pb       7.64200559       8.83532533      10.11271867      -0.00041961       0.00004124      -0.00005631
Pb       7.81873189      12.30873162       9.76788027       0.00047187       0.00048312      -0.00002090
Pb      10.98523252      13.81398030      10.34374736      -0.00045338      -0.00060606       0.00007175
Pb      14.43549612       8.58312484      11.73547549       0.00062297      -0.00059016       0.00014347
Pb      11.62603938       7.09570403      11.24142925      -0.00036228       0.00025420      -0.00020897
Pb      10.67935147      10.31542661      10.66105560      -0.00028265      -0.00070369       0.00013965
Pb      13.77587275      11.75069831      11.22834252       0.00024178      -0.00020227       0.00012581
Pb       9.16741192       8.31122888      13.08832212       0.00058038      -0.00001642       0.00016267
Pb      11.76879708      12.98535122      13.49519192      -0.00010557       0.00058229      -0.00021380
Pb       7.06625445      10.76604314      12.59114232      -0.00033170       0.00030026       0.00026213
Pb      12.18863381       9.65126542      13.70180094      -0.00051464       0.00016221       0.00047681
Pb       8.69599871      13.53426293      12.69181116      -0.00030486       0.00032978      -0.00026155
Pb       9.45017425      11.11202276      14.73686182       0.00047222      -0.00056441       0.00059952
19
Lattice="20.3415081 0.0 0.0 0.0 20.3415081 0.0 0.0 0.0 20.3415081" Properties=species:S:1:pos:R:3:forces:R:3 config_type=qcd dft_energy=-62.14618587 gap_energy=-61.75179000662263 relaxed_gap_energy=-61.909302686029704 energy=-61.909302686029704 free_energy=-61.909302686029704 pbc="T T T"
Pb       9.67473430      11.42717269      14.34558851       0.00012583       0.00005843       0.00008566