3
Lattice="16.58267467049162 0.0 0.0 0.0 16.58267467049162 0.0 0.0 0.0 16.58267467049162" Properties=species:S:1:pos:R:3:forces:R:3 config_type=qcd dft_energy=-8.29475043 gap_energy=-8.30530354096911 relaxed_gap_energy=-8.339221675978578 energy=-8.339221675978578 free_energy=-8.339221675978578 pbc="T T T"
Pd       8.42467750       7.48159240       7.07763543      -0.00002109       0.00012645       0.00019175
Pd       8.32424650       9.75348240       8.20374790      -0.00002526      -0.00044174       0.00015401
Pd       8.12508801       7.63893720       9.59262868       0.00004635       0.00031529      -0.00034576
4
Lattice="18.58556304225912 0.0 0.0 0.0 18.58556304225912 0.0 0.0 0.0 18.58556304225912" Properties=species:S:1:pos:R:3:forces:R:3 config_type=qcd dft_energy=-12.68961666 gap_energy=-12.57792046054551 relaxed_gap_energy=-12.592190097174274 energy=-12.592190097174274 free_energy=-12.592190097174274 pbc="T T T"
Pd      10.04158436       8.55535285      10.48718876       0.00014790      -0.00002571       0.00029613
Pd      10.33526623      10.17697829       8.47872001      -0.00029171       0.00021334       0.00022285
Pd       8.14895873      10.22897749       9.88152521       0.00046829      -0.00019778      -0.00043154
Pd       8.64531676       8.20981745       8.32369211      -0.00032448       0.00001014      -0.00008744
5
Lattice="16.63692058001718 0.0 0.0 0.0 16.63692058001718 0.0 0.0 0.0 16.63692058001718" Properties=species:S:1:pos:R:3:forces:R:3 config_type=qcd dft_energy=-16.51683116 gap_energy=-16.44313504087376 relaxed_gap_energy=-16.457955793716643 energy=-16.457955793716643 free_energy=-16.457955793716643 pbc="T T T"
Pd       8.79014604       7.20876776       9.25805721      -0.00020745      -0.00006021       0.00061255
Pd       8.56235403       9.74246008       9.87774202       0.00045134      -0.00002661      -0.00028609
Pd       8.07417557       6.89442185       6.75936000       0.00031421      -0.00037650      -0.00075368
Pd       9.33295280       9.07930470       7.46472929      -0.00017622       0.00031575       0.00017349
Pd       6.83267298       8.66734707       8.23241293      -0.00038188       0.00014757       0.00025373
6
Lattice="15.07139624 0.0 0.0 0.0 15.07139624 0.0 0.0 0.0 15.07139624" Properties=species:S:1:pos:R:3:forces:R:3 config_type=qcd dft_energy=-20.64487625 gap_energy=-20.637359973656572 relaxed_gap_energy=-20.67146870314051 energy=-20.67146870314051 free_energy=-20.67146870314051 pbc="T T T"
Pd       8.84514852       8.29194614       8.60457591       0.00015381       0.00063554       0.00057624
Pd       7.53569812       6.02379509       8.60548348      -0.00000000      -0.00023932      -0.00015281
Pd       6.22624772       8.29194614       8.60457591      -0.00015381       0.00063554       0.00057624
Pd       6.22624772       6.77945010       6.46682033      -0.00015381      -0.00063554      -0.00057624
Pd       8.84514852       6.77945010       6.46682033       0.00015381      -0.00063554      -0.00057624
Pd       7.53569812       9.04760115       6.46591276      -0.00000000       0.00023932       0.00015281
7
Lattice="16.490895 0.0 0.0 0.0 16.490895 0.0 0.0 0.0 16.490895" Properties=species:S:1:pos:R:3:forces:R:3 config_type=qcd dft_energy=-24.36170199 gap_energy=-24.484630918981956 relaxed_gap_energy=-24.523917316349525 energy=-24.523917316349525 free_energy=-24.523917316349525 pbc="T T T"
Pd       6.91415837       6.43047456       8.21976857      -0.00023873      -0.00025348      -0.00025645
Pd       9.01536840       6.79609839       9.78628902      -0.00007808       0.00013534      -0.00031495
Pd       8.59250381      10.26290433       7.30904854      -0.00024144       0.00002705       0.00022681
Pd       9.09350764       7.63754016       7.24971572       0.00060389      -0.00054867       0.00008844
Pd      10.05251429       9.16469564       9.22352709       0.00016688       0.00010934      -0.00006863
Pd       7.39729203       8.85336294       9.24112601      -0.00013413       0.00053712       0.00006838
Pd       6.65278796       8.57305649       6.68865754      -0.00007839      -0.00000670       0.00025639
8
Lattice="16.172325 0.0 0.0 0.0 16.172325 0.0 0.0 0.0 16.172325" Properties=species:S:1:pos:R:3:forces:R:3 config_type=qcd dft_energy=-28.45303762 gap_energy=-28.562627890860224 relaxed_gap_energy=-28.588927543370858 energy=-28.588927543370858 free_energy=-28.588927543370858 pbc="T T T"
Pd      10.21258091       9.41350827       8.07847930       0.00049177       0.00039771       0.00000388
Pd       8.63813842       8.08538427       9.78317419       0.00019534       0.00000183      -0.00061736
Pd       5.95746383       8.08985582       6.76243322      -0.00031859      -0.00000650      -0.00014249
Pd       5.96686074       8.09019613       9.42484643      -0.00031880       0.00000167       0.00021434
Pd       7.54330247       9.78613659       8.08786964      -0.00046007      -0.00072012       0.00001428
Pd       7.53710932       6.38816068       8.08832995      -0.00042052       0.00076207       0.00001381
Pd       8.62610371       8.08494411       6.38532466       0.00031623       0.00000536       0.00051299
Pd      10.20774060       6.75111414       8.07884261       0.00051463      -0.00044202       0.00000054
9
Lattice="16.402311 0.0 0.0 0.0 16.402311 0.0 0.0 0.0 16.402311" Properties=species:S:1:pos:R:3:forces:R:3 config_type=qcd dft_energy=-32.75989431 gap_energy=-32.72663601174117 relaxed_gap_energy=-32.7500436102332 energy=-32.7500436102332 free_energy=-32.7500436102332 pbc="T T T"
Pd       6.88256850       7.43932488       6.00901514      -0.00015794       0.00003529      -0.00027482
Pd       9.51988298       7.43978751       6.00891588       0.00015365       0.00005265      -0.00023371
Pd       8.20082430       9.72354918       6.00862893       0.00000086      -0.00016772       0.00021899
Pd       6.88622252       8.96004405       8.20111485       0.00015655       0.00028128      -0.00000791
Pd       9.51582755       8.96050440       8.20103203      -0.00015202       0.00030004       0.00001142
Pd       8.20143634       6.68310949       8.20131904      -0.00002282      -0.00042173       0.00000285
Pd       6.88268908       7.43978997      10.39354032      -0.00014586       0.00004833       0.00026116
Pd       9.52000377       7.44026831      10.39347954       0.00016399       0.00003839       0.00024253
Pd       8.20094445       9.72402172      10.39335379       0.00000359      -0.00016654      -0.00022050
10
Lattice="16.564766 0.0 0.0 0.0 16.564766 0.0 0.0 0.0 16.564766" Properties=species:S:1:pos:R:3:forces:R:3 config_type=qcd dft_energy=-36.87530398 gap_energy=-36.957337979505816 relaxed_gap_energy=-36.987990398683536 energy=-36.987990398683536 free_energy=-36.987990398683536 pbc="T T T"
Pd       8.62713864       8.29239410       7.34843725      -0.00007456       0.00001722      -0.00017196
Pd       8.50673489       9.62196859       9.92161912       0.00001210       0.00009625       0.00005662
Pd       8.52144399       6.91694918       9.89804830       0.00001365      -0.00009598       0.00003067
Pd       9.84359195      10.58506619       7.85758426      -0.00010031      -0.00031676      -0.00001293
Pd       9.86851053       6.00456771       7.81768441      -0.00010247       0.00031144      -0.00003446
Pd       7.14881760      10.44975115       7.72478131       0.00037955      -0.00066862      -0.00009437
Pd       7.17240786       6.11286206       7.68696204       0.00039008       0.00067925      -0.00003917
Pd      10.68422436       8.28914124       9.00651974      -0.00064465      -0.00001786      -0.00023220
Pd       6.31631871       8.26456955       9.09842475      -0.00022750       0.00000558       0.00028546
Pd       6.13464148       8.28656024       6.46376883       0.00035413      -0.00001053       0.00021235
11
Lattice="18.298985 0.0 0.0 0.0 18.298985 0.0 0.0 0.0 18.298985" Properties=species:S:1:pos:R:3:forces:R:3 config_type=qcd dft_energy=-41.16087458 gap_energy=-41.17442695631437 relaxed_gap_energy=-41.26383221384717 energy=-41.26383221384717 free_energy=-41.26383221384717 pbc="T T T"
Pd       9.14296520      12.31745469       8.82519852      -0.00009873       0.00014059       0.00076037
Pd       7.62185226       7.51988640       7.31610566      -0.00039103      -0.00033158      -0.00032906
Pd       8.13850609      10.07174202       7.85330770      -0.00048157       0.00044222      -0.00072148
Pd      10.24891830      10.12381953       9.84253829       0.00018239       0.00037994       0.00048364
Pd      10.59048580       7.54152957      10.46139646      -0.00028255       0.00002507       0.00000912
Pd       9.15601980       5.98153031       8.82519852       0.00009873      -0.00014059       0.00076037
Pd      10.16047891       8.22724298       7.85330770       0.00048157      -0.00044222      -0.00072148
Pd       8.05006670       8.17516547       9.84253829      -0.00018239      -0.00037994       0.00048364
Pd       7.70849920      10.75745543      10.46139646       0.00028255      -0.00002507       0.00000912
Pd      10.67713274      10.77909860       7.31610566       0.00039103       0.00033158      -0.00032906
Pd       9.14949250       9.14949250      12.04732422       0.00000000      -0.00000000      -0.00040519
12
Lattice="18.31161756 0.0 0.0 0.0 18.31161756 0.0 0.0 0.0 18.31161756" Properties=species:S:1:pos:R:3:forces:R:3 config_type=qcd dft_energy=-45.55290391 gap_energy=-45.564832235839404 relaxed_gap_energy=-45.60513829953814 energy=-45.60513829953814 free_energy=-45.60513829953814 pbc="T T T"
Pd       9.15580878      12.33994901       9.15580878      -0.00000000       0.00093783      -0.00000000
Pd       7.54327313      10.76834443      10.61050118      -0.00051314       0.00051314       0.00043408
Pd       5.97166855       9.15580878       9.15580878      -0.00093783       0.00000000      -0.00000000
Pd       7.54327313       7.54327313       7.70111638      -0.00051314      -0.00051314      -0.00043408
Pd       9.15580878       5.97166855       9.15580878       0.00000000      -0.00093783       0.00000000
Pd      10.76834443       7.54327313      10.61050118       0.00051314      -0.00051314       0.00043408
Pd      12.33994901       9.15580878       9.15580878       0.00093783      -0.00000000       0.00000000
Pd      10.76834443      10.76834443       7.70111638       0.00051314       0.00051314      -0.00043408
Pd      10.12749490      10.12749490      10.23880730      -0.00018894      -0.00018894      -0.00049799
Pd       8.18412266       8.18412266      10.23880730       0.00018894       0.00018894      -0.00049799
Pd       8.18412266      10.12749490       8.07281026       0.00018894      -0.00018894       0.00049799
Pd      10.12749490       8.18412266       8.07281026      -0.00018894       0.00018894       0.00049799
13
Lattice="17.298295 0.0 0.0 0.0 17.298295 0.0 0.0 0.0 17.298295" Properties=species:S:1:pos:R:3:forces:R:3 config_type=qcd dft_energy=-49.82272762 gap_energy=-49.87296944211089 relaxed_gap_energy=-49.90875767898653 energy=-49.90875767898653 free_energy=-49.90875767898653 pbc="T T T"
Pd       8.66781123      11.20788724       7.01923195      -0.00008347       0.00001503       0.00005363
Pd       8.56804082       8.56299971       7.03905971      -0.00046478      -0.00043972       0.00046670
Pd       8.76271863       6.04096117       7.76401945       0.00010521       0.00023130       0.00023757
Pd      10.93452452       9.74455752       7.06627419       0.00039321       0.00022416      -0.00006185
Pd      10.64793443       7.71760309       8.89179216      -0.00002498       0.00018593       0.00041192
Pd       6.86702979       9.96804189       8.56915579       0.00034846       0.00036351      -0.00026375
Pd       6.34471060       7.34076828       7.88974340       0.00014435       0.00025655      -0.00002981
Pd       9.50584230      10.18064159       9.29220163      -0.00023942      -0.00045252      -0.00017588
Pd       7.64780216       9.84914952      11.19583627      -0.00011622       0.00038313       0.00034317
Pd       5.60646562       8.38055934      10.24894503      -0.00020388      -0.00033655       0.00012723
Pd      10.04642894       8.62166839      11.34191759       0.00006099      -0.00003204      -0.00010090
Pd       8.12355215       7.65073447       9.80383770       0.00024565      -0.00028207      -0.00076268
Pd      10.71605631       7.17334529       6.31690263      -0.00016512      -0.00011670      -0.00024534
13
Lattice="19.923208 0.0 0.0 0.0 19.923208 0.0 0.0 0.0 19.923208" Properties=species:S:1:pos:R:3:forces:R:3 config_type=qcd dft_energy=-49.8162426 gap_energy=-49.79420310396867 relaxed_gap_energy=-49.82083888665647 energy=-49.82083888665647 free_energy=-49.82083888665647 pbc="T T T"
Pd       9.77629672       7.41114681      12.21345411      -0.00006415       0.00007152      -0.00004503
Pd      11.75310413      11.75830779       9.96160400       0.00030643      -0.00019314       0.00000000
Pd      11.04030329       9.56722245      11.33977409      -0.00027612      -0.00020139      -0.00017141
Pd      11.04030329       9.56722245       8.58343391      -0.00027612      -0.00020139       0.00017141
Pd       9.77629672       7.41114681       7.70975389      -0.00006415       0.00007152       0.00004503
Pd       8.76144921       8.38111073       9.96160400      -0.00001891       0.00053770      -0.00000000
Pd       8.95242122      11.06413669       9.96160400       0.00006982      -0.00001432       0.00000000
Pd       8.53858638       9.77636347       7.64869455       0.00042820       0.00019360       0.00031499
Pd       8.53858638       9.77636347      12.27451345       0.00042820       0.00019360      -0.00031499
Pd      10.14321793      11.98380560       7.79085346      -0.00027307      -0.00015072      -0.00014809
Pd       9.82240791      13.55599426       9.96160400      -0.00024485      -0.00043340       0.00000000
Pd      11.21466088       7.26422590       9.96160400       0.00025778       0.00027715      -0.00000000
Pd      10.14321793      11.98380560      12.13235454      -0.00027307      -0.00015072       0.00014809
14
Lattice="18.004267 0.0 0.0 0.0 18.004267 0.0 0.0 0.0 18.004267" Properties=species:S:1:pos:R:3:forces:R:3 config_type=qcd dft_energy=-54.21024213 gap_energy=-54.04963164968085 relaxed_gap_energy=-54.091155837058466 energy=-54.091155837058466 free_energy=-54.091155837058466 pbc="T T T"
Pd       8.43024191       9.14667964      10.93163613      -0.00034855       0.00001586       0.00019870
Pd      11.09146799       9.44855680      11.36907187       0.00043155       0.00000433       0.00040043
Pd       7.35183967       6.74738692      11.26816285       0.00030079       0.00044042      -0.00036984
Pd       9.98996337       6.97624750      10.94599768       0.00008582      -0.00022154       0.00029759
Pd       6.14177614       8.46969380       9.62949207      -0.00037626      -0.00005659      -0.00012557
Pd       8.30132908       7.11883395       8.82008292       0.00016036      -0.00022096       0.00010521
Pd      10.50846957       8.66063664       8.93589309       0.00002842       0.00010840       0.00002231
Pd       7.97169664       9.99383227       8.41489547       0.00010878       0.00001183      -0.00012217
Pd      12.18790372      10.65565463       9.17611814       0.00010226      -0.00014894      -0.00014422
Pd       9.75404455      11.27787934       9.92352017      -0.00003710       0.00008731       0.00039365
Pd      10.26992376      10.73409151       7.26139960       0.00025341       0.00042040      -0.00031463
Pd       8.00756774      10.34216995       5.81956745      -0.00018043       0.00020017       0.00008457
Pd       6.68091686       8.23916155       6.95349618      -0.00044831      -0.00027981      -0.00030666
Pd       9.34272800       8.21904450       6.58053539      -0.00008073      -0.00036090      -0.00011936
14
Lattice="21.34273630980433 0.0 0.0 0.0 21.34273630980433 0.0 0.0 0.0 21.34273630980433" Properties=species:S:1:pos:R:3:forces:R:3 config_type=qcd dft_energy=-54.18298362 gap_energy=-54.15045471613571 relaxed_gap_energy=-54.197944027677295 energy=-54.197944027677295 free_energy=-54.197944027677295 pbc="T T T"
Pd      11.69425631      12.74248064       8.17407024       0.00056369       0.00007071      -0.00055165
Pd      11.08850739       8.33918972       8.23004261       0.00034869      -0.00021472       0.00011596
Pd      12.24076977      10.43810991       9.31291648      -0.00013807      -0.00045102       0.00070757
Pd      12.65460464      12.73681937      10.68377357      -0.00029794       0.00023544      -0.00058273
Pd      10.11204651      12.21969458      10.22113691      -0.00019266      -0.00016585       0.00029550
Pd      11.76712281      10.53697699      11.95417277      -0.00004206      -0.00012014      -0.00072678
Pd       9.83744939      10.75159143       7.97116379      -0.00039218       0.00004926      -0.00031959
Pd      10.81368183      12.87145633      12.71790846      -0.00007278       0.00023785       0.00048489
Pd      12.02302646       8.14792820      10.74225943      -0.00015576       0.00046995      -0.00028104
Pd       9.71315641       9.32057040      10.25820445       0.00028645       0.00032162       0.00013305
Pd       7.79825251      11.05531745       9.80015800       0.00012267       0.00016992       0.00008849
Pd      10.22147910       8.56684214      12.77322669      -0.00011142      -0.00040610       0.00005229
Pd      10.53865811      10.73639112      14.30692608      -0.00018345      -0.00026437       0.00070525
Pd       8.89614295      10.93578589      12.25319467       0.00026481       0.00006745      -0.00012122
15
Lattice="20.47508644019558 0.0 0.0 0.0 20.47508644019558 0.0 0.0 0.0 20.47508644019558" Properties=species:S:1:pos:R:3:forces:R:3 config_type=qcd dft_energy=-58.55339367 gap_energy=-58.5191600882527 relaxed_gap_energy=-58.57199378511096 energy=-58.57199378511096 free_energy=-58.57199378511096 pbc="T T T"
Pd      10.16105640      12.97731942       9.48270992      -0.00021007      -0.00025410      -0.00011276
Pd      12.31867805      12.51395547      11.09568221       0.00007836      -0.00003708      -0.00006255
Pd      11.70099998      10.76494628       9.21814269      -0.00029142       0.00006543       0.00045266
Pd      14.11884204      10.69012976      10.32785667       0.00044424      -0.00061002       0.00013600
Pd       9.96034930      11.32062785      11.51186706       0.00022600      -0.00013800      -0.00005057
Pd       9.09630698      10.57960066       8.80930780       0.00018091      -0.00001444       0.00053171
Pd       7.70007206      12.18528398      10.37060086       0.00015428      -0.00053100       0.00016431
Pd      12.20573701       9.89779236      11.96222518      -0.00032756       0.00000326      -0.00023963
Pd       9.86090460       9.22039786      13.09929939      -0.00006716       0.00044341      -0.00080455
Pd      10.70982791       8.56512890       7.98748995      -0.00014899       0.00058798       0.00008759
Pd      12.82712017       8.42972871       9.71152996      -0.00051660       0.00022341      -0.00027545
Pd       6.48991708      10.14691082       9.13078433      -0.00033226      -0.00027512      -0.00043061
Pd      10.30143148       8.57880713      10.58244947       0.00008141       0.00023996       0.00027611
Pd       8.20770903       8.10102603       8.98611018       0.00060362       0.00007088       0.00049319
Pd       7.90419620       9.59149306      11.28709264       0.00012523       0.00022544      -0.00016544
16
Lattice="22.07762855247166 0.0 0.0 0.0 22.07762855247166 0.0 0.0 0.0 22.07762855247166" Properties=species:S:1:pos:R:3:forces:R:3 config_type=qcd dft_energy=-63.1932224 gap_energy=-62.73867052469376 relaxed_gap_energy=-62.89834526226896 energy=-62.89834526226896 free_energy=-62.89834526226896 pbc="T T T"
Pd      11.36431713      11.03879284      11.03881418      -0.00064789       0.00001500       0.00000861
Pd      11.41818636      11.03879396      13.83745855       0.00003383       0.00000388      -0.00041853
Pd      12.16063434       8.83639819      12.39421529       0.00003130      -0.00006825      -0.00052787
Pd       9.51375586       9.64614050      12.42662893      -0.00014247       0.00005890      -0.00022509
Pd       9.51390041      12.43164772      12.42662623      -0.00013889      -0.00006287      -0.00022492
Pd      12.16085829      13.24111437      12.39421240       0.00002885       0.00006362      -0.00053208
Pd      13.73550140      11.03867686      12.39082816      -0.00057921      -0.00000009       0.00009236
Pd      10.27965701       7.48139222      11.03881400       0.00073719       0.00043338       0.00000050
Pd       7.69132854      11.03898686      11.03880916       0.00069860       0.00000036       0.00000041
Pd      10.28002183      14.59632028      11.03881146       0.00074042      -0.00043910       0.00000038
Pd      13.73550576      11.03867610       9.68681394      -0.00057372      -0.00000023      -0.00009334
Pd      12.16086134      13.24111387       9.68341533       0.00003216       0.00006595       0.00053339
Pd       9.51390454      12.43164617       9.65099649      -0.00014031      -0.00005968       0.00022411
Pd       9.51376008       9.64613995       9.65099578      -0.00014406       0.00005576       0.00022440
Pd      12.16063782       8.83639681       9.68341628       0.00003444      -0.00007067       0.00052900
Pd      11.41819769      11.03879173       8.24017226       0.00002974       0.00000403       0.00040867
17
Lattice="22.06347543298964 0.0 0.0 0.0 22.06347543298964 0.0 0.0 0.0 22.06347543298964" Properties=species:S:1:pos:R:3:forces:R:3 config_type=qcd dft_energy=-67.5782226 gap_energy=-67.18427999745992 relaxed_gap_energy=-67.35623155755454 energy=-67.35623155755454 free_energy=-67.35623155755454 pbc="T T T"
Pd      11.18006221      11.13901319      11.03173312      -0.00084975      -0.00044671       0.00007348
Pd      11.21151147      11.16204379      13.83537562       0.00028942       0.00032391      -0.00022206
Pd      11.94159598       8.93198313      12.41213557      -0.00034232      -0.00016876      -0.00041878
Pd       9.30038350       9.77557761      12.43227197       0.00030836       0.00014870       0.00011805
Pd       9.31790668      12.54793969      12.41199104      -0.00039769      -0.00016982      -0.00024461
Pd      11.94412535      13.37150111      12.39823356       0.00044423      -0.00056530       0.00053152
Pd      13.53922112      11.17350594      12.39829438      -0.00051185       0.00044561       0.00049698
Pd      14.24673896       8.97058148      11.03173713       0.00043407      -0.00085001      -0.00000208
Pd      10.05276494       7.61660258      11.03173645       0.00067423       0.00035421      -0.00000138
Pd       7.48112444      11.16051767      11.03173762       0.00076169       0.00038958      -0.00000153
Pd      10.06936172      14.72771695      11.03173915      -0.00060232       0.00052230      -0.00000220
Pd      13.53921837      11.17350701       9.66518127      -0.00046611       0.00044280      -0.00049725
Pd      11.94412502      13.37149937       9.66524388       0.00045464      -0.00052132      -0.00053169
Pd       9.31790886      12.54793883       9.65148564      -0.00043068      -0.00014283       0.00024478
Pd       9.30038583       9.77558016       9.63120218       0.00027258       0.00012348      -0.00011842
Pd      11.94159479       8.93198666       9.65133848      -0.00032636      -0.00020929       0.00041936
Pd      11.21151194      11.16204599       8.22810413       0.00028787       0.00032346       0.00015581
18
Lattice="22.04519071046217 0.0 0.0 0.0 22.04519071046217 0.0 0.0 0.0 22.04519071046217" Properties=species:S:1:pos:R:3:forces:R:3 config_type=qcd dft_energy=-72.0479547 gap_energy=-71.65069939311358 relaxed_gap_energy=-71.78339628845156 energy=-71.78339628845156 free_energy=-71.78339628845156 pbc="T T T"
Pd      11.02242673      11.02266524      11.02258650      -0.00001718       0.00001969       0.00013155
Pd      11.02246330      11.02265122      13.82973406       0.00024424      -0.00009924       0.00021705
Pd      11.74787641       8.79069819      12.41273199      -0.00009180      -0.00026015       0.00028713
Pd       9.12406272       9.64312028      12.41276885      -0.00057312      -0.00012195       0.00017603
Pd       9.12386998      12.40209401      12.41283543       0.00006009      -0.00012790      -0.00010857
Pd      11.74783810      13.25446165      12.41274180      -0.00007091       0.00064758       0.00026124
Pd      13.36938427      11.02258424      12.41272096       0.00011822       0.00006876       0.00037622
Pd      14.04606458       8.82600493      11.02259508       0.00047086      -0.00041461      -0.00000449
Pd       9.86786104       7.46832945      11.02259657      -0.00003211      -0.00002528      -0.00000435
Pd       7.28554323      11.02254929      11.02259684       0.00001670      -0.00008224      -0.00000412
Pd       9.86777271      14.57675236      11.02259589       0.00009490       0.00007600      -0.00000477
Pd      14.04606423      13.21919883      11.02259423       0.00009464       0.00021153      -0.00000378
Pd      13.36937895      11.02258379       9.63246822       0.00019473       0.00006886      -0.00037472
Pd      11.74783553      13.25445701       9.63244784      -0.00004634       0.00072078      -0.00025963
Pd       9.12387276      12.40209107       9.63235543      -0.00000238      -0.00008261       0.00011168
Pd       9.12406572       9.64312257       9.63242409      -0.00063569      -0.00016701      -0.00017599
Pd      11.74787433       8.79070192       9.63245764      -0.00006839      -0.00033336      -0.00028287
Pd      11.02246177      11.02265035       8.21546498       0.00024355      -0.00009883      -0.00033761
19
Lattice="19.46184398 0.0 0.0 0.0 19.46184398 0.0 0.0 0.0 19.46184398" Properties=species:S:1:pos:R:3:forces:R:3 config_type=qcd dft_energy=-76.88905221 gap_energy=-76.56400123077341 relaxed_gap_energy=-76.5748534998864 energy=-76.5748534998864 free_energy=-76.5748534998864 pbc="T T T"
Pd       9.73092199       9.73092199       9.73092199      -0.00000000       0.00000000      -0.00000000
Pd      11.67739806       9.73092199      11.67739806      -0.00034492       0.00000000      -0.00034492
Pd       7.78444592       9.73092199      11.67739806       0.00034492       0.00000000      -0.00034492
Pd       7.78444592       9.73092199       7.78444592       0.00034492       0.00000000       0.00034492
Pd      11.67739806       9.73092199       7.78444592      -0.00034492       0.00000000       0.00034492
Pd       9.73092199       7.78444592      11.67739806      -0.00000000       0.00034492      -0.00034492
Pd       9.73092199       7.78444592       7.78444592       0.00000000       0.00034492       0.00034492
Pd       9.73092199      11.67739806       7.78444592       0.00000000      -0.00034492       0.00034492
Pd       9.73092199      11.67739806      11.67739806      -0.00000000      -0.00034492      -0.00034492
Pd       7.78444592       7.78444592       9.73092199       0.00034492       0.00034492      -0.00000000
Pd      11.67739806       7.78444592       9.73092199      -0.00034492       0.00034492      -0.00000000
Pd      11.67739806      11.67739806       9.73092199      -0.00034492      -0.00034492      -0.00000000
Pd       7.78444592      11.67739806       9.73092199       0.00034492      -0.00034492      -0.00000000
Pd      13.42633156       9.73092199       9.73092199       0.00032386      -0.00000000      -0.00000000
Pd       9.73092199       9.73092199      13.42633156      -0.00000000      -0.00000000       0.00032386
Pd       6.03551242       9.73092199       9.73092199      -0.00032386      -0.00000000       0.00000000
Pd       9.73092199       9.73092199       6.03551242       0.00000000      -0.00000000      -0.00032386
Pd       9.73092199       6.03551242       9.73092199      -0.00000000      -0.00032386      -0.00000000
Pd       9.73092199      13.42633156       9.73092199       0.00000000       0.00032386      -0.00000000
20
Lattice="21.82790858395446 0.0 0.0 0.0 21.82790858395446 0.0 0.0 0.0 21.82790858395446" Properties=species:S:1:pos:R:3:forces:R:3 config_type=qcd dft_energy=-80.65294294 gap_energy=-80.54711789916185 relaxed_gap_energy=-80.6343404435856 energy=-80.6343404435856 free_energy=-80.6343404435856 pbc="T T T"
Pd       8.62625714      10.86461199       8.23729138      -0.00055594       0.00006744       0.00009525
Pd      10.58156631      12.69095980       8.25234276       0.00013852       0.00059032      -0.00058571
Pd       8.33421430      13.05183675       9.68747048      -0.00024204       0.00045655      -0.00039588
Pd      11.24085473      10.01702508       8.35238789       0.00033449       0.00029631       0.00001830
Pd       9.15110613       8.59348556       9.43628941       0.00008533       0.00001627      -0.00005889
Pd      11.44837776       8.68057719      10.79750355       0.00018696      -0.00023565       0.00042789
Pd      12.67386229      11.96622110       9.73266681      -0.00002815       0.00027056      -0.00019741
Pd      13.63445075       9.48330650       9.46982109      -0.00030786      -0.00005818       0.00005532
Pd      10.23442764      11.09688527      10.59721122      -0.00005266      -0.00081295       0.00002851
Pd      10.74928194      13.69766934      10.79074251      -0.00009818       0.00011581      -0.00001365
Pd      14.71034713      11.19297797      11.27276728       0.00011205      -0.00026528      -0.00028687
Pd      13.19973420      13.40132648      11.90535011       0.00035835       0.00050814      -0.00010679
Pd       7.75624724      10.50277942      10.87274426      -0.00011538      -0.00015703      -0.00023731
Pd       9.07303057       8.41746794      12.07016995       0.00055018       0.00002119       0.00008557