3
Lattice="15.2151084006201 0.0 0.0 0.0 15.2151084006201 0.0 0.0 0.0 15.2151084006201" Properties=species:S:1:pos:R:3:forces:R:3 config_type=qcd dft_energy=-9.11965294 gap_energy=-9.363530765189996 relaxed_gap_energy=-9.365886346298858 energy=-9.365886346298858 free_energy=-9.365886346298858 pbc="T T T"
Pt       6.61823151       6.79926385       8.22159120      -0.00015588      -0.00012711       0.00009678
Pt       8.60902266       7.01163475       6.80065250       0.00009526       0.00002974      -0.00006543
Pt       7.59540842       9.01176400       7.80041890       0.00006062       0.00009737      -0.00003136
4
Lattice="15.76494099764771 0.0 0.0 0.0 15.76494099764771 0.0 0.0 0.0 15.76494099764771" Properties=species:S:1:pos:R:3:forces:R:3 config_type=qcd dft_energy=-13.25521075 gap_energy=-13.46535000090697 relaxed_gap_energy=-13.519202909011895 energy=-13.519202909011895 free_energy=-13.519202909011895 pbc="T T T"
Pt       8.09455763       8.62894984       6.85594143      -0.00011757      -0.00041460       0.00050454
Pt       6.39730064       9.24453298       8.56609630       0.00034508      -0.00029159      -0.00011810
Pt       9.36758857       6.52037121       7.19882174      -0.00012354       0.00025499      -0.00001769
Pt       7.67043517       7.13602798       8.90902251      -0.00010397       0.00045120      -0.00036876
5
Lattice="16.661819 0.0 0.0 0.0 16.661819 0.0 0.0 0.0 16.661819" Properties=species:S:1:pos:R:3:forces:R:3 config_type=qcd dft_energy=-17.86600182 gap_energy=-17.87342785448226 relaxed_gap_energy=-18.06233176804576 energy=-18.06233176804576 free_energy=-18.06233176804576 pbc="T T T"
Pt       6.45102744       9.57749878       8.33090847       0.00004749      -0.00009155       0.00000049
Pt       6.43414653       7.11019369       8.33090847      -0.00001462      -0.00002557       0.00000049
Pt       8.88357465       7.03393765       8.33091187      -0.00010335       0.00001747      -0.00000106
Pt       8.90126598       9.62016617       8.33091187      -0.00001936       0.00014891      -0.00000106
Pt      10.98453290       8.31275120       8.33090682       0.00008984      -0.00004925       0.00000115
6
Lattice="16.441483 0.0 0.0 0.0 16.441483 0.0 0.0 0.0 16.441483" Properties=species:S:1:pos:R:3:forces:R:3 config_type=qcd dft_energy=-22.93174691 gap_energy=-22.85111600745988 relaxed_gap_energy=-22.976759647237884 energy=-22.976759647237884 free_energy=-22.976759647237884 pbc="T T T"
Pt       9.76798521       8.41727792       8.19523327       0.00006688       0.00002656       0.00007974
Pt       9.82780217       6.03654973       8.74536109       0.00000680      -0.00027313       0.00002877
Pt       7.66026248       7.09407140       9.14250554      -0.00024350      -0.00005934       0.00015912
Pt       7.33731388       9.49231930       8.03124286      -0.00003883      -0.00004748       0.00002167
Pt       9.25018345      10.32508863       6.75779172       0.00001361       0.00039576      -0.00027695
Pt       5.48090181       7.95914202       8.45231452       0.00019503      -0.00004237      -0.00001235
7
Lattice="17.42043192879329 0.0 0.0 0.0 17.42043192879329 0.0 0.0 0.0 17.42043192879329" Properties=species:S:1:pos:R:3:forces:R:3 config_type=qcd dft_energy=-27.47292975 gap_energy=-27.65903160773004 relaxed_gap_energy=-27.743617627095624 energy=-27.743617627095624 free_energy=-27.743617627095624 pbc="T T T"
Pt       6.77243447      10.09813380      10.50129041       0.00004355       0.00005902       0.00004936
Pt       8.98287251       9.29847450       9.98695649      -0.00018387       0.00047938      -0.00014510
Pt      11.08440367       9.52599820       8.59498474      -0.00070427      -0.00045474       0.00004421
Pt      10.55192563       7.33067188       9.72045674       0.00046920      -0.00035889       0.00008951
Pt       6.89937140       8.95311410       8.32537762       0.00009087      -0.00012434      -0.00002541
Pt       9.31247253       8.00475291       7.61933593       0.00017191       0.00028785      -0.00015513
Pt       7.36803154       7.76036638       6.22310981       0.00011261       0.00011172       0.00014257
8
Lattice="17.487068 0.0 0.0 0.0 17.487068 0.0 0.0 0.0 17.487068" Properties=species:S:1:pos:R:3:forces:R:3 config_type=qcd dft_energy=-32.26824951 gap_energy=-31.324616923326815 relaxed_gap_energy=-32.25213548324157 energy=-32.25213548324157 free_energy=-32.25213548324157 pbc="T T T"
Pt      10.76943253       8.16133514       6.62398286       0.00005174       0.00006676       0.00007301
Pt       8.67493250       8.47656828       8.10895831       0.00005818      -0.00009104      -0.00004050
Pt       7.54062158       8.76257906      12.21488922       0.00023504      -0.00015326      -0.00071353
Pt      10.60641895       7.01806716       8.85164484       0.00010727      -0.00013768      -0.00002180
Pt       9.11985015       9.96762563       6.04251707      -0.00033222       0.00015703       0.00001956
Pt       7.34319537      10.59071580       7.70129854       0.00025010      -0.00006950      -0.00010633
Pt       7.07008215       9.44562389       9.89339993       0.00004282      -0.00006722       0.00031432
Pt       8.82373878       7.52575705      10.51158124      -0.00041292       0.00029491       0.00047528
9
Lattice="17.334313 0.0 0.0 0.0 17.334313 0.0 0.0 0.0 17.334313" Properties=species:S:1:pos:R:3:forces:R:3 config_type=qcd dft_energy=-37.60714808 gap_energy=-36.91637291817709 relaxed_gap_energy=-37.258743318392455 energy=-37.258743318392455 free_energy=-37.258743318392455 pbc="T T T"
Pt       6.44020520       5.98918211       8.90199639      -0.00018848       0.00011992       0.00006087
Pt       6.25051044       8.44239670       8.57746526      -0.00000128      -0.00018505      -0.00017542
Pt       5.98618854      10.89663315       8.83507190       0.00016120       0.00000688       0.00008206
Pt       8.44367409      11.08238070       8.54209406      -0.00000098      -0.00013030      -0.00002499
Pt       8.66724943       8.66135801       8.23922619       0.00005769       0.00015765       0.00009964
Pt       8.89073272       6.24947420       8.60783019      -0.00004600      -0.00005428      -0.00000515
Pt      11.34795181       6.44316197       8.89749927       0.00014479      -0.00003919      -0.00006583
Pt      11.08383214       8.88939059       8.57256651      -0.00001568      -0.00000902       0.00009062
Pt      10.89406415      11.35043108       8.83065873      -0.00011127       0.00013339      -0.00006180
10
Lattice="17.041316 0.0 0.0 0.0 17.041316 0.0 0.0 0.0 17.041316" Properties=species:S:1:pos:R:3:forces:R:3 config_type=qcd dft_energy=-43.23694841 gap_energy=-43.06653238998399 relaxed_gap_energy=-43.20512823321136 energy=-43.20512823321136 free_energy=-43.20512823321136 pbc="T T T"
Pt       7.15301501       7.43940083       7.75343395      -0.00012393      -0.00049494       0.00022689
Pt       8.33108509       7.58922018      10.17125441      -0.00007807      -0.00022457       0.00020689
Pt       9.83281899       7.25920305       7.95947305       0.00059306       0.00001744      -0.00043199
Pt       8.29149299       5.45703077       8.82212468      -0.00035833      -0.00005293       0.00009395
Pt      11.20527092       9.22366878       7.16868949       0.00051379      -0.00028228       0.00012173
Pt       6.19040745       9.56091799       6.78368129       0.00001024      -0.00001551      -0.00028384
Pt       8.71005444       9.45203246       6.87005277      -0.00062511       0.00052303       0.00012337
Pt       7.20852539       9.78210321       9.08196846       0.00056871       0.00019516       0.00023360
Pt       9.88841522       9.60178512       9.28783067      -0.00011231       0.00039899      -0.00054081
Pt       8.39549450       9.84121758      11.30807123      -0.00038806      -0.00006440       0.00025022
11
Lattice="17.368842 0.0 0.0 0.0 17.368842 0.0 0.0 0.0 17.368842" Properties=species:S:1:pos:R:3:forces:R:3 config_type=qcd dft_energy=-47.58913668 gap_energy=-47.23942324298655 relaxed_gap_energy=-47.369951548315555 energy=-47.369951548315555 free_energy=-47.369951548315555 pbc="T T T"
Pt       7.47434053       7.55583455       7.73738367       0.00007455      -0.00028335       0.00022417
Pt       8.72796243       7.86355449      10.23906128       0.00019167      -0.00021951      -0.00014008
Pt      10.20259258       7.47125532       7.82951877       0.00033561       0.00040671      -0.00006775
Pt       8.77761428       5.69887423       8.90447102      -0.00010233       0.00004470       0.00014860
Pt      11.63898665       9.42168668       7.16271551      -0.00019005      -0.00019483       0.00009141
Pt       6.66391031       9.74121214       6.72323675      -0.00029597       0.00029839      -0.00030496
Pt       9.14235968       9.80429063       7.18302767      -0.00006598      -0.00005812       0.00012204
Pt       7.37203116      10.13800559       9.14525138       0.00019884       0.00000263       0.00000588
Pt      10.54349553       9.62252088       9.42209151       0.00000784      -0.00006784      -0.00000597
Pt       8.84277665      10.20537801      11.23640711      -0.00006719      -0.00002068      -0.00001499
Pt       6.14256122       8.00601847       9.94546632      -0.00008699       0.00009190      -0.00005836
11
Lattice="18.96345583066369 0.0 0.0 0.0 18.96345583066369 0.0 0.0 0.0 18.96345583066369" Properties=species:S:1:pos:R:3:forces:R:3 config_type=qcd dft_energy=-47.58529866 gap_energy=-46.736050432487275 relaxed_gap_energy=-47.60170644669036 energy=-47.60170644669036 free_energy=-47.60170644669036 pbc="T T T"
Pt       7.58132140      11.86311352       8.74953867       0.00036080      -0.00027351       0.00009442
Pt      11.22929287       8.67944918      12.67964651      -0.00022446      -0.00012985       0.00004686
Pt       9.32080534       7.95424156      11.23572351       0.00002388       0.00035111      -0.00002038
Pt       7.13128115       7.75461074       9.79370261       0.00011350       0.00017101       0.00009578
Pt       8.06057527       9.98262001      10.26382984       0.00042790       0.00005743      -0.00006175
Pt       9.78912918      11.83503159      10.23908327      -0.00042367      -0.00021831       0.00004543
Pt       9.36158555       8.84621005       6.36121505      -0.00001785      -0.00012867      -0.00002867
Pt      11.35400413       9.67718841      10.41891309      -0.00001658      -0.00001051      -0.00024996
Pt       9.62551277      10.71529759       7.96919038       0.00009237      -0.00049482       0.00021476
Pt       9.32854014       7.96229127       8.67987843      -0.00001437       0.00030746      -0.00020840
Pt      11.51695927       9.02895315       7.90828569      -0.00032151       0.00036866       0.00007192
11
Lattice="18.03987002858444 0.0 0.0 0.0 18.03987002858444 0.0 0.0 0.0 18.03987002858444" Properties=species:S:1:pos:R:3:forces:R:3 config_type=qcd dft_energy=-47.54172365 gap_energy=-47.60023831826925 relaxed_gap_energy=-48.17955687951374 energy=-48.17955687951374 free_energy=-48.17955687951374 pbc="T T T"
Pt      11.45768975       7.04549138       8.90195721       0.00030223       0.00035242       0.00038209
Pt       8.93687560       7.22219108       8.69694750       0.00010691      -0.00028094       0.00002018
Pt       6.82496804       7.11516135       7.28985328      -0.00019591       0.00026150       0.00030376
Pt      10.17893871       8.65485766      10.38625646       0.00015835      -0.00008746       0.00021044
Pt      10.61086638       9.13920435       7.74929964      -0.00024486       0.00005100      -0.00013005
Pt       6.70196317       8.19393555       9.56564538      -0.00043993      -0.00028542       0.00018198
Pt       7.91153838       9.58907667      11.21101730      -0.00069869      -0.00035817      -0.00024919
Pt      10.05157955      10.83755710      11.67917390       0.00040326      -0.00036524      -0.00052863
Pt       7.90994104       9.38873999       7.61447964       0.00015059       0.00001495      -0.00024659
Pt       9.15182894      10.82135318       9.30389884       0.00039537       0.00052929       0.00014571
Pt       9.48309559      11.21171686       6.82075601       0.00006268       0.00016807      -0.00008970
12
Lattice="16.893932 0.0 0.0 0.0 16.893932 0.0 0.0 0.0 16.893932" Properties=species:S:1:pos:R:3:forces:R:3 config_type=qcd dft_energy=-52.63741113 gap_energy=-52.28619076251676 relaxed_gap_energy=-52.51954804114958 energy=-52.51954804114958 free_energy=-52.51954804114958 pbc="T T T"
Pt       8.49475150      10.23722174      10.39906899      -0.00039259      -0.00005087       0.00014911
Pt       8.99640617       7.71160650      10.04403843      -0.00002550       0.00007777      -0.00033869
Pt       6.87002582       8.17450387       7.45028964      -0.00020101      -0.00031184       0.00013543
Pt       7.84923338       9.49469803       5.53356297       0.00025973      -0.00011020      -0.00035263
Pt       6.42851562       7.39129051       9.79952699      -0.00009663       0.00033395       0.00022571
Pt       8.90506217       6.63583748       7.49121703      -0.00005307       0.00010481      -0.00002107
Pt       8.37368612      10.24556429       7.88659229       0.00019173       0.00023211       0.00025522
Pt       8.02895839       5.41081386       9.49598983       0.00012088       0.00006793      -0.00008523
Pt      10.45725777       8.77374291       7.94162822      -0.00009836       0.00006334      -0.00001204
Pt       6.13237954       9.93433340       9.36355817       0.00032471      -0.00024857       0.00007812
Pt       9.91674113       7.97416142       5.62597872      -0.00001856      -0.00002917       0.00012785
Pt      10.91057439       9.37981798      10.33214068      -0.00001132      -0.00012926      -0.00016178
13
Lattice="18.18680584561213 0.0 0.0 0.0 18.18680584561213 0.0 0.0 0.0 18.18680584561213" Properties=species:S:1:pos:R:3:forces:R:3 config_type=qcd dft_energy=-57.87224561 gap_energy=-57.47583835815459 relaxed_gap_energy=-57.797294269246166 energy=-57.797294269246166 free_energy=-57.797294269246166 pbc="T T T"
Pt       7.31373453       7.21360702       6.96479559       0.00053468      -0.00015445       0.00044906
Pt       9.28445743       7.13292929       8.56977506      -0.00018312       0.00034966      -0.00032079
Pt       9.82753689       7.72377406      11.10004560      -0.00000757      -0.00017008      -0.00079434
Pt       6.87803868       7.89228937       9.39360713       0.00003185      -0.00039989      -0.00000208
Pt       7.49939514       8.56533351      11.79648060       0.00000996       0.00000138       0.00076248
Pt      11.65449332       6.96593935       9.47590937      -0.00060082      -0.00036384      -0.00009016
Pt      10.05062077      10.02778117      10.14301370       0.00003573       0.00003012       0.00038981
Pt      11.21424393       9.04879458       8.12180479      -0.00023033      -0.00002336      -0.00002504
Pt       7.97645733      11.04617789      11.21682259       0.00046939       0.00033572      -0.00020094
Pt       7.79189831      10.15693489       8.83629764      -0.00035416      -0.00000997      -0.00046980
Pt       8.88000029       9.18213456       6.77150467       0.00061272       0.00011938       0.00045244
Pt      10.49186619      11.13013856       6.87675173       0.00029790       0.00012219      -0.00002623
Pt       9.35149518      12.12840375       8.94742953      -0.00061623       0.00016314      -0.00012441
14
Lattice="17.085149 0.0 0.0 0.0 17.085149 0.0 0.0 0.0 17.085149" Properties=species:S:1:pos:R:3:forces:R:3 config_type=qcd dft_energy=-63.11679952 gap_energy=-62.44596891910723 relaxed_gap_energy=-62.72098435253698 energy=-62.72098435253698 free_energy=-62.72098435253698 pbc="T T T"
Pt       5.99714871      11.05653220       7.62804669      -0.00004284       0.00023054       0.00022863
Pt       8.53064597      11.10721973       7.65291688      -0.00007557       0.00038718       0.00012282
Pt      11.05232943      11.11138586       7.82762429       0.00020477       0.00000985       0.00000108
Pt       6.09759415       8.52861430       7.86754029      -0.00031577      -0.00000121      -0.00024896
Pt       8.59706504       8.59364431       7.65488209       0.00022969      -0.00087344      -0.00009028
Pt      11.11152960       8.58944901       7.66669357      -0.00000943      -0.00014137      -0.00009209
Pt       6.07066730       6.00334196       7.53044840       0.00010017       0.00001123       0.00030217
Pt       8.59268660       6.09433457       7.88019112       0.00002399       0.00072201       0.00031730
Pt      11.12360644       6.05538352       7.65522314       0.00015478      -0.00016188      -0.00030124
Pt       6.92067103       6.88613076       9.73717778       0.00003034       0.00004038      -0.00041308
Pt       7.12897685      10.11463879       9.72999384      -0.00047797       0.00021674      -0.00041636
Pt       9.86922327       9.90905545       9.77853380      -0.00034065       0.00010265      -0.00012488
Pt      10.14219777       7.17443667       9.74583101       0.00041381      -0.00044233       0.00017384
Pt       8.36170084       8.37187588      11.24094009       0.00010470      -0.00010037       0.00054104
15
Lattice="19.16255100427284 0.0 0.0 0.0 19.16255100427284 0.0 0.0 0.0 19.16255100427284" Properties=species:S:1:pos:R:3:forces:R:3 config_type=qcd dft_energy=-68.02486998 gap_energy=-67.54822824737101 relaxed_gap_energy=-68.14400338297258 energy=-68.14400338297258 free_energy=-68.14400338297258 pbc="T T T"
Pt      12.68574601      11.03296009       8.16005086      -0.00017964       0.00046586       0.00058895
Pt      12.02293776      10.88925594      10.62346348       0.00058777       0.00024916      -0.00022575
Pt      10.25631641      11.25430049       7.59264796      -0.00054849      -0.00016713      -0.00024038
Pt      11.39253415       8.87617062       7.73197989      -0.00030124      -0.00072766      -0.00021955
Pt       7.90446043      10.95423929       6.85529929       0.00059247       0.00015962      -0.00002540
Pt      11.23079239       9.43447179      12.64480486      -0.00060882       0.00016047       0.00021955
Pt       9.55135748      10.92380969       9.95086790       0.00010161      -0.00014944      -0.00023063
Pt       9.51832010       7.18008540       7.58861845       0.00008283       0.00014704      -0.00008964
Pt      11.09297447       8.62038727      10.20980336      -0.00004811      -0.00023984      -0.00018039
Pt       8.86027960       9.97177207      12.13796841       0.00041227      -0.00008229       0.00030194
Pt       8.10349585       9.01556393       8.53249336       0.00025761      -0.00000741      -0.00016076
Pt       7.07583175      11.13597036       9.32715278      -0.00061569      -0.00018539       0.00056945
Pt       9.76633604       6.50357819      10.06568136      -0.00022519       0.00040813       0.00002384
Pt       6.43578475       9.97154891      11.50956605       0.00013859       0.00072119      -0.00026087
Pt       7.82196532       7.95501848      10.78873450       0.00035402      -0.00075232      -0.00007036
16
Lattice="19.2240604052829 0.0 0.0 0.0 19.2240604052829 0.0 0.0 0.0 19.2240604052829" Properties=species:S:1:pos:R:3:forces:R:3 config_type=qcd dft_energy=-72.45161033 gap_energy=-72.2414934581754 relaxed_gap_energy=-72.92463184126672 energy=-72.92463184126672 free_energy=-72.92463184126672 pbc="T T T"
Pt      10.46217805       6.63121104       9.78849062      -0.00020169       0.00021319       0.00009472
Pt      12.66007425       7.72268490      10.67980252      -0.00002043      -0.00042762      -0.00074218
Pt       7.95872252       7.06185374       9.44689146       0.00034659       0.00057316       0.00007151
Pt      10.35178409       8.84699957      11.00188151       0.00025352       0.00080433       0.00023523
Pt       7.77076017      11.03446041      12.43910160      -0.00054124       0.00047166       0.00022984
Pt      10.85459407       8.02397231       7.67306381       0.00025493       0.00005959       0.00015642
Pt      12.09307111       9.62682019       9.18125074      -0.00048689      -0.00055350      -0.00015739
Pt       7.84166929       8.78616363      11.32144673      -0.00011213      -0.00049220      -0.00026589
Pt      10.02212018      11.36691021      11.37391026       0.00032106      -0.00009073      -0.00007743
Pt       8.58255660       9.16564189       8.01223577       0.00075091      -0.00006567       0.00012008
Pt      10.18413955       9.96524087       6.16095596      -0.00033124       0.00009078       0.00035165
Pt       8.85106979      11.45777979       9.11911593       0.00073124       0.00002004      -0.00046196
Pt       6.57780057      11.52559857      10.14116331      -0.00054353       0.00009351       0.00030881
Pt      12.20390085      11.90416043      10.28543141      -0.00009297       0.00001076       0.00030452
Pt       6.30789628       9.10168557       9.22040242       0.00016690      -0.00033943      -0.00022189
Pt      11.07014585      11.57130017       7.94733921      -0.00049504      -0.00036788       0.00005396
16
Lattice="19.49936889833527 0.0 0.0 0.0 19.49936889833527 0.0 0.0 0.0 19.49936889833527" Properties=species:S:1:pos:R:3:forces:R:3 config_type=qcd dft_energy=-72.41994292 gap_energy=-71.95423975900094 relaxed_gap_energy=-72.26822962797289 energy=-72.26822962797289 free_energy=-72.26822962797289 pbc="T T T"
Pt       9.00104437      11.02178674      13.20101770       0.00010397       0.00011511       0.00006247
Pt      12.37057929       9.46657907      10.63258608      -0.00013788       0.00016765      -0.00001376
Pt       9.90619526       9.12544390      11.54365720       0.00020836       0.00061479       0.00045092
Pt      10.87303125      11.51989650      11.52752133      -0.00004054       0.00010422      -0.00020055
Pt       9.21889911       6.78491966      10.85721892      -0.00031450      -0.00024558       0.00010204
Pt       7.43166387       9.66432962      11.55263198      -0.00003347      -0.00023144      -0.00012213
Pt       8.25444312      12.08913839      10.87299679      -0.00004484       0.00004051       0.00028381
Pt      12.56305493      11.97544693       9.62078008      -0.00057386      -0.00050274      -0.00000382
Pt       7.06708619       7.82607985       9.78808350      -0.00016187      -0.00009169       0.00001411
Pt      10.58778007       8.12824877       9.20092712       0.00034650       0.00016296      -0.00059381
Pt      11.88636172      10.03735087       8.04427172      -0.00017846       0.00008991       0.00006106
Pt      10.05498180      11.55778379       9.06885249       0.00076386      -0.00011529       0.00025988
Pt       7.86127985      10.21416691       9.00263833      -0.00014269      -0.00012778      -0.00009019
Pt       8.55367722       8.02260913       7.69594801      -0.00010496      -0.00014607       0.00015344
Pt       9.42832469      10.37125746       6.83749696       0.00035135      -0.00005898      -0.00025581
Pt      10.93654846       8.18991359       6.54832300      -0.00004095       0.00022445      -0.00010769
17
Lattice="19.89605600375259 0.0 0.0 0.0 19.89605600375259 0.0 0.0 0.0 19.89605600375259" Properties=species:S:1:pos:R:3:forces:R:3 config_type=qcd dft_energy=-78.3398602 gap_energy=-78.7963510120626 relaxed_gap_energy=-79.54031461836496 energy=-79.54031461836496 free_energy=-79.54031461836496 pbc="T T T"
Pt       9.63861851       6.26538014       8.92687965      -0.00013605       0.00057240      -0.00024129
Pt      10.07280392      10.53570953      12.46164336       0.00049278       0.00011578      -0.00070077
Pt      11.00770570       9.05767448      10.64635762       0.00000176      -0.00034722      -0.00010458
Pt      11.44464457       7.97133303       8.40929661       0.00000366      -0.00017402       0.00095179
Pt       9.18370966       7.39412224      11.16260084       0.00008011      -0.00008972       0.00049084
Pt      13.20636349       9.73608839       7.93832550      -0.00036966      -0.00013794      -0.00042166
Pt       8.54506484       8.64813951      13.25293371      -0.00037933      -0.00024961      -0.00035399
Pt      12.72783817      10.84227256      10.18036206       0.00075452       0.00001546       0.00044852
Pt       7.88368508       8.10847911       8.97933331       0.00021316       0.00012971      -0.00018032
Pt      11.42809565      11.55642621       7.99688385      -0.00046617      -0.00000471       0.00011207
Pt       9.68680785       9.78365439       8.42838999       0.00004288       0.00017353      -0.00005711
Pt      12.08737143      12.09418939      12.27132753      -0.00013064      -0.00014690       0.00043864
Pt       7.87896051       9.91773403      11.17052891       0.00047477      -0.00018017       0.00037624
Pt      10.28830256      12.26154556      10.50301497      -0.00034560       0.00009651      -0.00032807
Pt       8.12105164      11.60860366       9.18457705       0.00000856       0.00000306      -0.00010459
Pt       6.18638512       9.94447444       9.29275185       0.00028915       0.00033382      -0.00010639
Pt       9.72906730      13.39064938       8.31126922      -0.00053389      -0.00010999      -0.00021933
18
Lattice="21.49536552409916 0.0 0.0 0.0 21.49536552409916 0.0 0.0 0.0 21.49536552409916" Properties=species:S:1:pos:R:3:forces:R:3 config_type=qcd dft_energy=-82.55423898 gap_energy=-82.65542455431435 relaxed_gap_energy=-83.42510568053297 energy=-83.42510568053297 free_energy=-83.42510568053297 pbc="T T T"
Pt       8.86656146      11.17566278       7.96057277      -0.00009983       0.00026725       0.00028568
Pt       7.37043000      12.09238784      10.05391234      -0.00026610       0.00029524      -0.00013550
Pt      12.18259531       7.54237765      12.00667575       0.00065248       0.00041993       0.00044031
Pt       9.04174107      11.77970691      11.99306041      -0.00004980      -0.00018156       0.00033200
Pt      11.47404946       9.67190338      13.21042701       0.00010189      -0.00003186       0.00012699
Pt      11.41229351      11.18113937       8.42459804       0.00008734       0.00025699      -0.00020445
Pt      13.69765761      11.23144378       9.63759782       0.00000271      -0.00065516       0.00014980
Pt      10.84846870      12.05074067      13.77818338      -0.00022373      -0.00004953       0.00001311
Pt       8.96283962       9.30225187      12.74801777       0.00000145       0.00021690      -0.00011753
Pt       9.94362763       7.81496477      10.76263629      -0.00048206       0.00004787      -0.00024358
Pt      10.20474898       8.87557273       8.28476619       0.00016986      -0.00032972      -0.00033121
Pt      12.09111361       9.15229367       9.94447409      -0.00002054       0.00020778       0.00007834
Pt      12.38185709      11.85376606      11.74429204      -0.00010946      -0.00011009      -0.00030950
Pt       8.53659521       9.83042629      10.18571200      -0.00016214       0.00038000      -0.00001570
Pt      12.19901218      13.42557621       9.49743679       0.00046087       0.00018620      -0.00002959
Pt      10.78498228      13.84222856      11.78222369      -0.00017849      -0.00036925       0.00015444
Pt       9.71349885      12.95760460       9.61042269      -0.00037311      -0.00058130      -0.00009224
Pt      13.74621714       9.67824258      11.83328064       0.00048867       0.00003032      -0.00010136
19
Lattice="20.4922639761588 0.0 0.0 0.0 20.4922639761588 0.0 0.0 0.0 20.4922639761588" Properties=species:S:1:pos:R:3:forces:R:3 config_type=qcd dft_energy=-88.43442874 gap_energy=-88.70608399749365 relaxed_gap_energy=-89.24145545711676 energy=-89.24145545711676 free_energy=-89.24145545711676 pbc="T T T"
Pt      12.46626090       7.47169691      10.14415694      -0.00030626      -0.00006018       0.00000723
Pt      13.37420802      12.25304223      10.90162538       0.00009637       0.00022736      -0.00039142
Pt      12.09162706      12.09161148       8.72193320       0.00012437      -0.00010606      -0.00033681
Pt      11.35482072       9.74300724       9.35580140       0.00019065       0.00035367       0.00002491
Pt      10.85920898      11.91899011       6.52186350       0.00067086       0.00022507      -0.00044652
Pt      12.61781021       9.89080905      11.49951919      -0.00035133      -0.00060047       0.00027434
Pt      10.07300203       9.60410963       7.21275521      -0.00045037      -0.00032351      -0.00015527
Pt       9.91784229       7.71596136      10.32157003       0.00026385      -0.00022595       0.00058448
Pt      11.41646352       7.85106018      12.52114416       0.00042621      -0.00003652      -0.00014240
Pt       8.82977246       7.60753013       8.00145466      -0.00011764       0.00019952      -0.00005293
Pt       8.67244378      11.75606805       7.80473445      -0.00013155       0.00056057       0.00002773
Pt       9.91226521      11.93783262       9.96858655      -0.00016941      -0.00003555       0.00021284
Pt      11.17752674      12.16541312      12.14611683      -0.00071755       0.00018802       0.00042956
Pt      11.23399651      10.12343939      13.86069033      -0.00018036       0.00011238       0.00029439
Pt       9.31558453       9.39208036      12.20649653       0.00003210       0.00026204      -0.00037402
Pt       7.93335054       9.15511057       9.79282851       0.00000563      -0.00024199       0.00002284
Pt       6.56553023      11.07625922       8.96541738      -0.00008883      -0.00026521      -0.00011133
Pt       9.05572500      11.63154625      13.48845807       0.00007257      -0.00033847      -0.00037730
Pt       7.80906906      11.29093986      11.24135545       0.00063070       0.00010526       0.00050969
20
Lattice="19.74839403828228 0.0 0.0 0.0 19.74839403828228 0.0 0.0 0.0 19.74839403828228" Properties=species:S:1:pos:R:3:forces:R:3 config_type=qcd dft_energy=-93.33030449 gap_energy=-92.93523444500583 relaxed_gap_energy=-94.11679659418135 energy=-94.11679659418135 free_energy=-94.11679659418135 pbc="T T T"