3
Lattice="24.50978359371795 0.0 0.0 0.0 24.50978359371795 0.0 0.0 0.0 24.50978359371795" Properties=species:S:1:pos:R:3:forces:R:3 config_type=qcd dft_energy=-1.2310252 gap_energy=-0.9196908980935579 relaxed_gap_energy=-0.9771122635467027 energy=-0.9771122635467027 free_energy=-0.9771122635467027 pbc="T T T"
Rb      14.74784800      11.31854493      12.30387782       0.00022988      -0.00000444      -0.00006922
Rb      11.62202070      14.27526364      10.63756543      -0.00001970      -0.00000641       0.00001204
Rb      10.39480669      11.17086683      13.82323214      -0.00021018       0.00001085       0.00005717
3
Lattice="24.77888828501807 0.0 0.0 0.0 24.77888828501807 0.0 0.0 0.0 24.77888828501807" Properties=species:S:1:pos:R:3:forces:R:3 config_type=qcd dft_energy=-1.22083177 gap_energy=-0.8619836612703882 relaxed_gap_energy=-0.9771119277777931 energy=-0.9771119277777931 free_energy=-0.9771119277777931 pbc="T T T"
Rb      13.60962859      14.03718396      14.08894996       0.00028357       0.00035840       0.00034311
Rb      10.13345984      11.16880846      13.10636021      -0.00043341      -0.00026314       0.00007721
Rb      13.42524400      11.96234000       9.97302226       0.00014985      -0.00009526      -0.00042032
3
Lattice="25.79313503024979 0.0 0.0 0.0 25.79313503024979 0.0 0.0 0.0 25.79313503024979" Properties=species:S:1:pos:R:3:forces:R:3 config_type=qcd dft_energy=-1.21680742 gap_energy=-0.9500106086361573 relaxed_gap_energy=-0.9771121810809991 energy=-0.9771121810809991 free_energy=-0.9771121810809991 pbc="T T T"
Rb      10.62007518      12.17627833      14.07610822      -0.00035052      -0.00005838       0.00011684
Rb      15.21733305      11.93641759      13.78378487       0.00027767      -0.00000932      -0.00002403
Rb      12.85229431      14.57700661      10.82980946       0.00007285       0.00006770      -0.00009282
3
Lattice="29.58926555798829 0.0 0.0 0.0 29.58926555798829 0.0 0.0 0.0 29.58926555798829" Properties=species:S:1:pos:R:3:forces:R:3 config_type=qcd dft_energy=-1.21195953 gap_energy=-0.8156981857514456 relaxed_gap_energy=-0.8157686150457213 energy=-0.8157686150457213 free_energy=-0.8157686150457213 pbc="T T T"
Rb      10.37368425      14.81160906      14.99406268      -0.00024247       0.00002671       0.00010352
Rb      14.79403380      14.79345578      14.79042515       0.00036534      -0.00005283      -0.00020113
Rb      19.21618027      14.77883350      14.59941050      -0.00012288       0.00002611       0.00009762
3
Lattice="28.34402730383886 0.0 0.0 0.0 28.34402730383886 0.0 0.0 0.0 28.34402730383886" Properties=species:S:1:pos:R:3:forces:R:3 config_type=qcd dft_energy=-1.20352037 gap_energy=-0.8265286777272127 relaxed_gap_energy=-0.8270169501569118 energy=-0.8270169501569118 free_energy=-0.8270169501569118 pbc="T T T"
Rb      15.48581045      10.37092812      15.30684446       0.00004778      -0.00029773      -0.00002480
Rb      13.77178718      13.89949278      13.23377243       0.00001098       0.00046597       0.00021565
Rb      13.25844333      18.24562005      13.97542406      -0.00005876      -0.00016824      -0.00019086
3
Lattice="27.73881143291576 0.0 0.0 0.0 27.73881143291576 0.0 0.0 0.0 27.73881143291576" Properties=species:S:1:pos:R:3:forces:R:3 config_type=qcd dft_energy=-1.2028374 gap_energy=-0.8376194169353415 relaxed_gap_energy=-0.9771121784717014 energy=-0.9771121784717014 free_energy=-0.9771121784717014 pbc="T T T"
Rb      15.51307686      13.41187765      11.82347993      -0.00013475      -0.00002605       0.00019693
Rb      12.81025067      16.29000590      14.21100080       0.00006441      -0.00028972       0.00004472
Rb      13.28488961      11.90633360      15.57373643       0.00007034       0.00031577      -0.00024165
4
Lattice="26.71439136348996 0.0 0.0 0.0 26.71439136348996 0.0 0.0 0.0 26.71439136348996" Properties=species:S:1:pos:R:3:forces:R:3 config_type=qcd dft_energy=-1.89362338 gap_energy=-1.4074572959026739 relaxed_gap_energy=-1.525026197974583 energy=-1.525026197974583 free_energy=-1.525026197974583 pbc="T T T"
Rb      10.99190256      13.56366468      14.07272116       0.00025647       0.00015530      -0.00055901
Rb      15.68441751      14.01197478      13.89662968       0.00042843       0.00006181       0.00007365
Rb      13.73188858       9.98521783      14.76090525      -0.00019164      -0.00015236       0.00017827
Rb      13.02057408      15.86792544      10.69852664      -0.00049326      -0.00006475       0.00030710
4
Lattice="28.24672258993567 0.0 0.0 0.0 28.24672258993567 0.0 0.0 0.0 28.24672258993567" Properties=species:S:1:pos:R:3:forces:R:3 config_type=qcd dft_energy=-1.87363134 gap_energy=-1.3252645220906984 relaxed_gap_energy=-1.5250280634722628 energy=-1.5250280634722628 free_energy=-1.5250280634722628 pbc="T T T"
Rb      12.87045617      16.89376328      16.18251335      -0.00006719      -0.00005873      -0.00015804
Rb      16.49972779      14.62573915      14.61377638      -0.00003098       0.00002486      -0.00003043
Rb      14.79987457      10.61827125      13.26236630      -0.00011869       0.00007793      -0.00008237
Rb      12.32338664      14.35567150      12.43478914       0.00021686      -0.00004405       0.00027084
4
Lattice="28.42155061409662 0.0 0.0 0.0 28.42155061409662 0.0 0.0 0.0 28.42155061409662" Properties=species:S:1:pos:R:3:forces:R:3 config_type=qcd dft_energy=-1.85767983 gap_energy=-1.4117767113047819 relaxed_gap_energy=-1.5250272445019561 energy=-1.5250272445019561 free_energy=-1.5250272445019561 pbc="T T T"
Rb      13.62344220      13.32199698      10.69632094       0.00001291       0.00038695       0.00006188
Rb      12.96362416      12.25393164      15.07757626      -0.00020001      -0.00040743       0.00015372
Rb      16.17287622      14.61799541      17.28780313       0.00004391       0.00022430       0.00002652
Rb      14.08315865      16.64917722      13.78140090       0.00014320      -0.00020382      -0.00024212
4
Lattice="28.45154356993581 0.0 0.0 0.0 28.45154356993581 0.0 0.0 0.0 28.45154356993581" Properties=species:S:1:pos:R:3:forces:R:3 config_type=qcd dft_energy=-1.85235926 gap_energy=-1.271205997336537 relaxed_gap_energy=-1.5250272140375927 energy=-1.5250272140375927 free_energy=-1.5250272140375927 pbc="T T T"
Rb      12.01731392      17.00695090      15.15797260      -0.00034812       0.00035568       0.00030545
Rb      13.32016327      14.07226928      11.92495157      -0.00012844      -0.00053920      -0.00070957
Rb      16.11557479      15.06096042      15.59312185       0.00057941      -0.00005385       0.00045132
Rb      15.45003515      10.76290654      14.22704110      -0.00010286       0.00023737      -0.00004720
5
Lattice="27.08789910408299 0.0 0.0 0.0 27.08789910408299 0.0 0.0 0.0 27.08789910408299" Properties=species:S:1:pos:R:3:forces:R:3 config_type=qcd dft_energy=-2.58443695 gap_energy=-2.011712346389798 relaxed_gap_energy=-2.284346482867294 energy=-2.284346482867294 free_energy=-2.284346482867294 pbc="T T T"
Rb      13.91152644      15.65662298      11.52362647       0.00018613       0.00061101       0.00013180
Rb      11.09232059      11.90811953      13.53199223       0.00010479      -0.00007048       0.00037985
Rb      15.40335274      10.77747549      10.98647293       0.00006704      -0.00034392       0.00008747
Rb      15.62671370      13.06531539      15.57555989      -0.00049500       0.00013434      -0.00040521
Rb      11.68583428      16.31221437      16.10209624       0.00013704      -0.00033095      -0.00019390
5
Lattice="25.66542955814827 0.0 0.0 0.0 25.66542955814827 0.0 0.0 0.0 25.66542955814827" Properties=species:S:1:pos:R:3:forces:R:3 config_type=qcd dft_energy=-2.54272209 gap_energy=-2.0249272496363826 relaxed_gap_energy=-2.1575445810073557 energy=-2.1575445810073557 free_energy=-2.1575445810073557 pbc="T T T"
Rb      16.04445653      14.33214169      13.53422349      -0.00002461      -0.00042383       0.00002140
Rb      13.13278618      10.71874715      14.07572070      -0.00045856       0.00049259       0.00005554
Rb      11.70818831      14.93098770      15.50666783       0.00044471      -0.00010917       0.00029987
Rb      12.18023163      14.24075387      10.91364295      -0.00058815       0.00035683      -0.00033515
Rb      11.09791126       9.94094348      10.13331892       0.00062660      -0.00031642      -0.00004166
5
Lattice="27.58254202213578 0.0 0.0 0.0 27.58254202213578 0.0 0.0 0.0 27.58254202213578" Properties=species:S:1:pos:R:3:forces:R:3 config_type=qcd dft_energy=-2.54146911 gap_energy=-2.0298769354022195 relaxed_gap_energy=-2.1575757614300013 energy=-2.1575757614300013 free_energy=-2.1575757614300013 pbc="T T T"
Rb      11.85664011       9.99083935      13.11033738      -0.00012509      -0.00030041      -0.00030976
Rb      11.58393948      14.48082830      12.92555447       0.00000765       0.00016059       0.00020592
Rb      14.12111712      16.16401669      16.46629377       0.00027745      -0.00054419      -0.00037027
Rb      15.54428952      12.18731394      14.46642722      -0.00011005       0.00084016       0.00053025
Rb      15.85036883      16.13335677      11.98774222      -0.00004996      -0.00015615      -0.00005614
5
Lattice="26.26710404545337 0.0 0.0 0.0 26.26710404545337 0.0 0.0 0.0 26.26710404545337" Properties=species:S:1:pos:R:3:forces:R:3 config_type=qcd dft_energy=-2.53718014 gap_energy=-1.959853955363263 relaxed_gap_energy=-2.2843453298412317 energy=-2.2843453298412317 free_energy=-2.2843453298412317 pbc="T T T"
Rb      12.46295634      10.27766851      13.41774636       0.00007226       0.00019151       0.00075885
Rb      15.32094391      13.95892376      11.34034975       0.00014000       0.00019298      -0.00022006
Rb      10.40315006      13.45514326       9.95540737       0.00020786       0.00022863      -0.00007147
Rb      15.86223874      12.81096652      16.31467838      -0.00055874      -0.00003782      -0.00055911
Rb      11.61847108      15.16505806      14.63957827       0.00013861      -0.00057530       0.00009178
6
Lattice="28.27317321764841 0.0 0.0 0.0 28.27317321764841 0.0 0.0 0.0 28.27317321764841" Properties=species:S:1:pos:R:3:forces:R:3 config_type=qcd dft_energy=-3.37933604 gap_energy=-2.745818010316537 relaxed_gap_energy=-2.8104936599582437 energy=-2.8104936599582437 free_energy=-2.8104936599582437 pbc="T T T"
Rb      12.58279306      16.12891460      11.25893618      -0.00002084      -0.00014985       0.00020223
Rb      15.71819871      12.96927209      10.85028244      -0.00017537       0.00003779       0.00002886
Rb      12.53491257      12.53241252      14.24922532       0.00024294       0.00029977      -0.00015749
Rb      17.11077724      11.86671831      14.95174048      -0.00000282      -0.00007456       0.00002944
Rb      12.03658059      16.97807998      15.61370061       0.00009447      -0.00018147      -0.00010056
Rb      14.83625749      14.34412215      17.89563462      -0.00013839       0.00006832      -0.00000247
6
Lattice="29.06439757563985 0.0 0.0 0.0 29.06439757563985 0.0 0.0 0.0 29.06439757563985" Properties=species:S:1:pos:R:3:forces:R:3 config_type=qcd dft_energy=-3.35219755 gap_energy=-2.500217211814455 relaxed_gap_energy=-2.509363119955541 energy=-2.509363119955541 free_energy=-2.509363119955541 pbc="T T T"
Rb      13.15223680      12.60314910       9.78285140      -0.00002891       0.00014163      -0.00053281
Rb      16.46730165      13.54406853      12.82857752      -0.00005117       0.00001321      -0.00009490
Rb      11.87753526      14.47809079      13.78389092      -0.00019300      -0.00048690       0.00057673
Rb      19.61284522      14.43838860      16.06149523       0.00041878      -0.00013158       0.00022884
Rb      10.82349171      16.51574361      17.77117263      -0.00031146       0.00025980      -0.00007889
Rb      15.25978209      15.61375210      16.96520501       0.00016576       0.00020384      -0.00009897
7
Lattice="26.79348378032685 0.0 0.0 0.0 26.79348378032685 0.0 0.0 0.0 26.79348378032685" Properties=species:S:1:pos:R:3:forces:R:3 config_type=qcd dft_energy=-4.22765004 gap_energy=-3.716743149846062 relaxed_gap_energy=-3.735320143938994 energy=-3.735320143938994 free_energy=-3.735320143938994 pbc="T T T"
Rb      11.96248775      10.43193062      10.64514091      -0.00037012       0.00029984       0.00038813
Rb      16.21197750      10.16257075      13.34804522       0.00062679      -0.00047107      -0.00037819
Rb      14.61759391      14.49277799      11.56759968      -0.00019460       0.00051064       0.00017845
Rb      12.17740570      12.29635124      15.22409826      -0.00016162       0.00044237       0.00019809
Rb      16.58532251      14.37242840      16.09878147      -0.00066313       0.00008500       0.00001008
Rb      12.53908652      17.22754012      15.12945419       0.00075688      -0.00018289       0.00024476
Rb       9.68331936      14.79359411      11.76407351       0.00000579      -0.00068389      -0.00064133
8
Lattice="28.67386657268162 0.0 0.0 0.0 28.67386657268162 0.0 0.0 0.0 28.67386657268162" Properties=species:S:1:pos:R:3:forces:R:3 config_type=qcd dft_energy=-5.06674141 gap_energy=-4.4445653530365306 relaxed_gap_energy=-4.465322268183275 energy=-4.465322268183275 free_energy=-4.465322268183275 pbc="T T T"
Rb      17.04754404      17.64796414      16.38738972      -0.00036822       0.00002185      -0.00016426
Rb      16.31907007      12.71809495      16.34314572       0.00025304      -0.00012274       0.00016267
Rb      12.43753529      15.56910344      16.67548175       0.00031725       0.00018239       0.00004800
Rb      11.69798819      10.70807863      15.87167672       0.00007094      -0.00053530       0.00003261
Rb      18.67782556      14.81922699      12.48471962       0.00035569      -0.00006397       0.00031087
Rb      14.16486790      16.92659146      12.38392860       0.00020384       0.00061748      -0.00030636
Rb      14.42478636      12.13095678      11.94825356      -0.00051837      -0.00011996      -0.00003122
Rb       9.92584889      14.17544993      12.60087059      -0.00031417       0.00002025      -0.00005231
8
Lattice="28.19633564613031 0.0 0.0 0.0 28.19633564613031 0.0 0.0 0.0 28.19633564613031" Properties=species:S:1:pos:R:3:forces:R:3 config_type=qcd dft_energy=-5.03560383 gap_energy=-4.3739974481188675 relaxed_gap_energy=-4.465316831490387 energy=-4.465316831490387 free_energy=-4.465316831490387 pbc="T T T"
Rb      17.60640253      15.72692969      11.35076046       0.00040938      -0.00015588       0.00052028
Rb      12.63617606      15.72025058      11.68626810      -0.00030168      -0.00060262      -0.00034466
Rb      14.95199776      11.52060085      12.30332803      -0.00044563       0.00033584      -0.00053102
Rb      10.08280871      11.68152044      13.36336258      -0.00010635       0.00029220       0.00001310
Rb      15.23017996      18.65752668      14.76602085       0.00041585      -0.00000637      -0.00014270
Rb      13.46853051      10.32946555      16.91093729       0.00011032      -0.00037007       0.00014073
Rb      16.75238540      14.06469973      15.97643303       0.00010566       0.00090217      -0.00000849
Rb      12.05686165      15.08434906      16.42823226      -0.00018755      -0.00039526       0.00035276
8
Lattice="28.46590647257595 0.0 0.0 0.0 28.46590647257595 0.0 0.0 0.0 28.46590647257595" Properties=species:S:1:pos:R:3:forces:R:3 config_type=qcd dft_energy=-5.02611762 gap_energy=-4.44258566232358 relaxed_gap_energy=-4.465324820605247 energy=-4.465324820605247 free_energy=-4.465324820605247 pbc="T T T"
Rb      11.86941911      14.61878949      18.33021176      -0.00028559      -0.00023896      -0.00030851
Rb      15.74627758      16.06365837      12.01122221      -0.00029616       0.00039302      -0.00006106
Rb      13.75349476      18.65849213      15.87749636       0.00013055       0.00004251      -0.00032029
Rb      13.45267798      11.16448222      14.98153393      -0.00008025       0.00004180       0.00015477
Rb      13.47122379      12.07179410      10.07889322       0.00025416      -0.00037718      -0.00017469
Rb      11.21866430      15.14249156      13.41088827      -0.00001902       0.00038824       0.00059708
Rb      16.51530217      14.55927189      16.52561302       0.00028136      -0.00025163       0.00014027
Rb      17.83656619      11.58464613      12.64776712       0.00001496       0.00000221      -0.00002756
9
Lattice="31.78979360554741 0.0 0.0 0.0 31.78979360554741 0.0 0.0 0.0 31.78979360554741" Properties=species:S:1:pos:R:3:forces:R:3 config_type=qcd dft_energy=-5.60007442 gap_energy=-5.065809797097588 relaxed_gap_energy=-5.093963244472702 energy=-5.093963244472702 free_energy=-5.093963244472702 pbc="T T T"
Rb      17.11108267      15.47642827      21.30080264       0.00067638       0.00034166       0.00056456
Rb      18.95356421      17.36331304      16.98793680       0.00004018      -0.00024594      -0.00014815
Rb      12.86398565      13.54284121      19.27883000      -0.00015848      -0.00006843       0.00030132
Rb      14.36692317      18.14406508      18.12917719      -0.00030432      -0.00024030      -0.00014695
Rb      17.26978903      12.87586833      17.06896807      -0.00020031      -0.00007054      -0.00003043
Rb      15.98578469      19.34031697      13.48648706      -0.00029994      -0.00008285       0.00009658
Rb      18.37137346      15.00834946      12.61628986       0.00009507      -0.00004215      -0.00002648
Rb      13.72918730      14.98745250      14.46961288      -0.00018489       0.00023579      -0.00072491
Rb      14.40238102      16.31543635       9.71596670       0.00033631       0.00017276       0.00011447
9
Lattice="29.42346572346085 0.0 0.0 0.0 29.42346572346085 0.0 0.0 0.0 29.42346572346085" Properties=species:S:1:pos:R:3:forces:R:3 config_type=qcd dft_energy=-5.58986509 gap_energy=-5.04214388280406 relaxed_gap_energy=-5.175071055697616 energy=-5.175071055697616 free_energy=-5.175071055697616 pbc="T T T"
Rb      15.47296894      11.38652902      18.28679080      -0.00037848       0.00043370      -0.00020175
Rb      15.79994623      12.07483144      13.60654843       0.00038884      -0.00027380      -0.00021221
Rb      18.05741058      15.17223981      16.20826172      -0.00017592       0.00037163      -0.00013498
Rb      11.38420642      12.25484558      15.36356595       0.00018509       0.00090644      -0.00001298
Rb      16.72594780      16.29242225      11.40086143      -0.00003963      -0.00056358      -0.00004903
Rb      13.77476517      15.85544365      18.09880553       0.00052596      -0.00059494      -0.00023970
Rb      16.04415047      19.42255430      15.36199453      -0.00027746      -0.00002934       0.00064003
Rb      12.57259382      13.29138207      10.38181949       0.00009163       0.00021651       0.00056630
Rb      12.57360632      16.65534765      13.69694785      -0.00032004      -0.00046663      -0.00035569
9
Lattice="28.11178969752876 0.0 0.0 0.0 28.11178969752876 0.0 0.0 0.0 28.11178969752876" Properties=species:S:1:pos:R:3:forces:R:3 config_type=qcd dft_energy=-5.58359577 gap_energy=-5.129385398979222 relaxed_gap_energy=-5.185413015252754 energy=-5.185413015252754 free_energy=-5.185413015252754 pbc="T T T"
Rb      10.85705264      15.76374870      13.15337037      -0.00027257       0.00026468      -0.00009117
Rb      13.71488887      13.15901955      10.44799911      -0.00058497      -0.00018446       0.00029926
Rb      11.43068419      14.41589254      17.49987014       0.00024231       0.00038465      -0.00001749
Rb      15.61643743      12.57955730      17.11856158      -0.00024327      -0.00022085       0.00005617
Rb      11.60535006      11.23288887      14.20352282       0.00061613      -0.00041395      -0.00010096
Rb      14.85571309      17.10718358      16.06020130      -0.00010215       0.00000703       0.00010929
Rb      17.69337394      14.49478094      13.34053978       0.00006421       0.00050070       0.00050852
Rb      14.76159799      17.50265307      11.49234997       0.00049589      -0.00079222      -0.00012832
Rb      15.96795541      10.24732909      13.18663856      -0.00021558       0.00045443      -0.00063531
9
Lattice="28.82206926945312 0.0 0.0 0.0 28.82206926945312 0.0 0.0 0.0 28.82206926945312" Properties=species:S:1:pos:R:3:forces:R:3 config_type=qcd dft_energy=-5.58258908 gap_energy=-5.095960553771574 relaxed_gap_energy=-5.130978435687675 energy=-5.130978435687675 free_energy=-5.130978435687675 pbc="T T T"
Rb      18.12380277      11.08104207      13.27536825      -0.00037620       0.00002692      -0.00049513
Rb      16.41144732      15.81311061      14.17067673      -0.00025600       0.00017279       0.00031600
Rb      17.56511929      12.66473493      18.02554588      -0.00022944       0.00038700       0.00058439
Rb      13.98705326      12.63640706      10.87082708       0.00048198      -0.00052735      -0.00008249
Rb      13.11570905      15.00153914      18.13343166       0.00067408      -0.00037387       0.00012100
Rb      13.60069433      10.98038736      15.44217781       0.00000220      -0.00009161      -0.00035215
Rb      13.28936832      17.61633354      10.56495808      -0.00019515      -0.00022838       0.00027192
Rb      12.74507301      19.16471625      15.33373454       0.00011078       0.00011079      -0.00018934
Rb      10.86104438      14.74104076      13.88259169      -0.00021226       0.00052373      -0.00017421
9
Lattice="27.73768179503767 0.0 0.0 0.0 27.73768179503767 0.0 0.0 0.0 27.73768179503767" Properties=species:S:1:pos:R:3:forces:R:3 config_type=qcd dft_energy=-5.57911222 gap_energy=-5.096563674984063 relaxed_gap_energy=-5.135879505301906 energy=-5.135879505301906 free_energy=-5.135879505301906 pbc="T T T"
Rb      17.26174671      12.58255601      10.52120900       0.00012855       0.00055352      -0.00031216
Rb      12.47143641      13.39499916      10.73777655      -0.00072740       0.00020175      -0.00008795
Rb      15.46354324      17.21680407      10.60221927       0.00039076       0.00018117       0.00006114
Rb      11.49292836      17.14457706      13.55905073      -0.00006260       0.00039648      -0.00036040
Rb      10.91728472      12.70194435      15.24917226      -0.00015969      -0.00072086      -0.00022720
Rb      15.39960786      14.45133219      14.48556694       0.00017696      -0.00029061      -0.00006220
Rb      14.29846443       9.86393316      13.39623162       0.00018338      -0.00062721       0.00068903
Rb      12.85534538      16.04568114      18.18906410       0.00024067       0.00045368       0.00022862
Rb      14.65921098      11.41774097      18.07927760      -0.00017064      -0.00014791       0.00007111
9
Lattice="28.53190801459427 0.0 0.0 0.0 28.53190801459427 0.0 0.0 0.0 28.53190801459427" Properties=species:S:1:pos:R:3:forces:R:3 config_type=qcd dft_energy=-5.57528134 gap_energy=-5.133089394056876 relaxed_gap_energy=-5.175075304083132 energy=-5.175075304083132 free_energy=-5.175075304083132 pbc="T T T"
Rb      12.17659747      17.30898013      14.21812248      -0.00004695       0.00007197      -0.00013383
Rb      10.52619446      12.54292221      14.97678105       0.00028410      -0.00076585      -0.00012635
Rb      11.24801499      14.61678433      10.37893750      -0.00055741       0.00073528       0.00023836
Rb      14.47758797      11.82591758      12.42084007      -0.00000195      -0.00076868       0.00049373
Rb      14.67468390       9.89783067      16.72715552      -0.00009867       0.00069968      -0.00049005
Rb      16.88574935      18.17490583      15.74982772       0.00031665      -0.00005261      -0.00034569
Rb      14.25748947      14.56341705      17.31852718      -0.00038813      -0.00026556       0.00022720
Rb      15.89136149      16.14894586      11.54090007       0.00034961       0.00025775      -0.00042421
Rb      18.25590695      13.31388241      15.06249450       0.00014275       0.00008802       0.00056085
9
Lattice="28.07355997583079 0.0 0.0 0.0 28.07355997583079 0.0 0.0 0.0 28.07355997583079" Properties=species:S:1:pos:R:3:forces:R:3 config_type=qcd dft_energy=-5.56878946 gap_energy=-5.020752425148556 relaxed_gap_energy=-5.130968234072414 energy=-5.130968234072414 free_energy=-5.130968234072414 pbc="T T T"
Rb      13.62470622      15.34592385      10.66255186       0.00033048       0.00036774      -0.00001228
Rb      16.61402350      11.33790207      10.51864894      -0.00054959      -0.00071362      -0.00001609
Rb      11.91896143      11.11009196      12.34651100       0.00057528       0.00006981       0.00010355
Rb      18.43718739      15.76442951      12.09631572      -0.00059893      -0.00011319      -0.00004552
Rb      10.65235098      15.24796135      14.56259337      -0.00030769      -0.00017342       0.00006463
Rb      14.67080936      17.92529642      14.61777286      -0.00016288       0.00044155       0.00039747
Rb      15.75630773      12.85075419      15.32198918       0.00016725      -0.00016002       0.00064154
Rb      11.38348327      11.15845506      17.36067588       0.00023060      -0.00004181      -0.00090179
Rb      13.27319003      15.59020548      18.84396109       0.00031549       0.00032296      -0.00023150
9
Lattice="29.80306885892893 0.0 0.0 0.0 29.80306885892893 0.0 0.0 0.0 29.80306885892893" Properties=species:S:1:pos:R:3:forces:R:3 config_type=qcd dft_energy=-5.5510159 gap_energy=-5.0112600770772335 relaxed_gap_energy=-5.1739708270788025 energy=-5.1739708270788025 free_energy=-5.1739708270788025 pbc="T T T"
Rb      17.89574679      13.31719765      15.84097138      -0.00011537       0.00058802      -0.00062952
Rb      13.38002237      11.79452457      15.46165613      -0.00007445      -0.00017990      -0.00007987
Rb      15.82064146      13.05025794      11.40528408       0.00009942      -0.00011220       0.00058953
Rb      18.93666911      16.80219090      12.85358691       0.00075245      -0.00008972      -0.00044246
Rb      11.57214543      16.14644410      16.76771094       0.00029829       0.00013550       0.00042117
Rb      10.89412643      14.07547449      12.17798839       0.00024130      -0.00002445      -0.00029441
Rb      14.27330385      17.20164204      13.07835814      -0.00082358      -0.00011403       0.00001975
Rb      14.86907525      13.91850481      19.35138825      -0.00062945      -0.00019879       0.00017335
Rb      16.47207917      17.80757336      17.17686562       0.00025139      -0.00000442       0.00024247
10
Lattice="28.53834848963992 0.0 0.0 0.0 28.53834848963992 0.0 0.0 0.0 28.53834848963992" Properties=species:S:1:pos:R:3:forces:R:3 config_type=qcd dft_energy=-6.33090691 gap_energy=-5.675151718742654 relaxed_gap_energy=-5.940525354814707 energy=-5.940525354814707 free_energy=-5.940525354814707 pbc="T T T"
Rb      13.38913105      10.13798118      11.56734521      -0.00015848       0.00008927       0.00014161
Rb      14.05584317      14.55507416      10.42194509       0.00003696       0.00004384      -0.00047078
Rb      12.32981326      17.50646411      13.43408614       0.00014859       0.00017732       0.00028845
Rb      10.61733670      13.28601554      13.48329198      -0.00063220      -0.00037227       0.00036729
Rb      17.26350823      12.16256407      13.03090185       0.00027626       0.00037348       0.00042806
Rb      17.02951632      16.71350266      13.11434984       0.00039053      -0.00018446       0.00004134
Rb      13.82315087      10.89266145      16.09579442       0.00034612       0.00011729      -0.00039505
Rb      15.14871773      18.39907214      16.97301199       0.00009099      -0.00015791      -0.00033104
Rb      16.86806123      14.12285306      17.12481968      -0.00032056      -0.00005282      -0.00005118
Rb      12.16666388      14.91555409      17.44619627      -0.00017821      -0.00003374      -0.00001871
10
Lattice="28.66931921451219 0.0 0.0 0.0 28.66931921451219 0.0 0.0 0.0 28.66931921451219" Properties=species:S:1:pos:R:3:forces:R:3 config_type=qcd dft_energy=-6.31698415 gap_energy=-5.669516204964179 relaxed_gap_energy=-5.733734807573391 energy=-5.733734807573391 free_energy=-5.733734807573391 pbc="T T T"
Rb      18.05029613      15.52907973      11.45333286       0.00031478      -0.00021696      -0.00045297
Rb      13.93754208      13.09296955      11.70681805       0.00019455       0.00041773      -0.00041205
Rb      17.97853387      10.64151524      11.94815476       0.00028391       0.00046490      -0.00026405
Rb      14.46389769      17.24503180      13.97671208      -0.00053116      -0.00029595      -0.00040059
Rb      10.18170984      15.86669580      12.34185882       0.00011713      -0.00006917      -0.00001297
Rb      14.20201519       9.51026938      14.86895959      -0.00030387      -0.00017927       0.00043421
Rb      12.10300762      13.55607674      16.07014274       0.00007577       0.00010637       0.00040675
Rb      16.83402763      13.44485224      15.58519266       0.00015103      -0.00034595       0.00036428
Rb      10.68803059      18.02050005      16.72427757      -0.00027535       0.00048342       0.00009816
Rb      14.90753545      16.43960556      18.67114694      -0.00002680      -0.00036512       0.00023922
10
Lattice="32.1733031544541 0.0 0.0 0.0 32.1733031544541 0.0 0.0 0.0 32.1733031544541" Properties=species:S:1:pos:R:3:forces:R:3 config_type=qcd dft_energy=-6.31253662 gap_energy=-5.72459233655864 relaxed_gap_energy=-5.892650392241833 energy=-5.892650392241833 free_energy=-5.892650392241833 pbc="T T T"
Rb      15.48491867      14.38131930      10.94113125      -0.00013836       0.00059328       0.00005157
Rb      15.30033293      18.18185537      13.62673510       0.00046560       0.00008242      -0.00062916
Rb      12.20494955      14.90889627      14.66163579      -0.00036899      -0.00019068       0.00071870
Rb      19.31981705      15.85231128      13.67236191       0.00036249       0.00058809      -0.00007626
Rb      16.44601809      12.42969324      15.05211826       0.00062146      -0.00056138       0.00049576