3
Lattice="14.181488 0.0 0.0 0.0 14.181488 0.0 0.0 0.0 14.181488" Properties=species:S:1:pos:R:3:forces:R:3 config_type=qcd dft_energy=-22.17331275 gap_energy=-23.171944656870195 relaxed_gap_energy=-23.57501669019085 energy=-23.57501669019085 free_energy=-23.57501669019085 pbc="T T T"
Re       6.07266155       6.31198716       7.09074400      -0.00033381      -0.00078357       0.00000000
Re       6.92529616       8.36182830       7.09074400       0.00069123       0.00030436       0.00000000
Re       8.27427429       6.59841652       7.09074400      -0.00035742       0.00047921       0.00000000
4
Lattice="30.0 0.0 0.0 0.0 30.0 0.0 0.0 0.0 30.0" Properties=species:S:1:pos:R:3:forces:R:3 config_type=qcd dft_energy=-32.78158312 gap_energy=-33.159217363761094 relaxed_gap_energy=-33.178686891540714 energy=-33.178686891540714 free_energy=-33.178686891540714 pbc="T T T"
Re      11.76837249       9.61915648      10.95962752      -0.00010066       0.00023843      -0.00025525
Re      11.47655217      11.13951069       9.33197188       0.00024006      -0.00023782       0.00024312
Re       9.25283962      11.03270468       9.63090415      -0.00020198      -0.00000697       0.00001968
Re       9.54464103       9.51234217      11.25852651       0.00006257       0.00000636      -0.00000754
5
Lattice="14.716109 0.0 0.0 0.0 14.716109 0.0 0.0 0.0 14.716109" Properties=species:S:1:pos:R:3:forces:R:3 config_type=qcd dft_energy=-42.1353106 gap_energy=-43.0760912651013 relaxed_gap_energy=-43.33343482827917 energy=-43.33343482827917 free_energy=-43.33343482827917 pbc="T T T"
Re       7.25765754       8.26143680       6.21275188       0.00012000      -0.00008486      -0.00006681
Re       8.45410273       8.16430275       8.36465719       0.00004641       0.00006222      -0.00002569
Re       6.12968649       7.92167926       8.37686191      -0.00026195      -0.00002512       0.00018536
Re       6.31220532       6.10007657       6.92410453       0.00015656       0.00013141       0.00001309
Re       8.63662041       6.34277711       6.91189700      -0.00006103      -0.00008364      -0.00010596
6
Lattice="30.0 0.0 0.0 0.0 30.0 0.0 0.0 0.0 30.0" Properties=species:S:1:pos:R:3:forces:R:3 config_type=qcd dft_energy=-53.74223258 gap_energy=-53.83840825558837 relaxed_gap_energy=-53.86893563447392 energy=-53.86893563447392 free_energy=-53.86893563447392 pbc="T T T"
Re       7.56273964       9.26263611       9.91043460      -0.00007539       0.00004823       0.00011760
Re       9.69999280      10.07160016       9.05884220       0.00007146       0.00008229       0.00007309
Re       7.87132023       9.60189896       7.51522309      -0.00002395      -0.00009315      -0.00008732
Re       9.83070553       8.15067902       7.56208418      -0.00016212      -0.00010095       0.00008003
Re       7.69346088       7.34167360       8.41370374       0.00013180       0.00008228      -0.00012646
Re       9.52210622       7.81138997       9.95732231       0.00005820      -0.00001870      -0.00005693
7
Lattice="30.0 0.0 0.0 0.0 30.0 0.0 0.0 0.0 30.0" Properties=species:S:1:pos:R:3:forces:R:3 config_type=qcd dft_energy=-63.12767434 gap_energy=-63.31324300807391 relaxed_gap_energy=-63.429737771473256 energy=-63.429737771473256 free_energy=-63.429737771473256 pbc="T T T"
Re       8.78984807      10.80408883       8.79972175       0.00001548       0.00041243      -0.00008763
Re      10.75965930       9.52491365       8.86547656      -0.00037036      -0.00029552       0.00010493
Re       9.39377118       9.68473251      10.90801339      -0.00008019      -0.00011992      -0.00008566
Re       7.41444803       8.73742671       9.79073611       0.00032722       0.00025212       0.00007967
Re       9.38427164       7.45826935       9.85663384      -0.00008828      -0.00021219       0.00027160
Re       7.74315506       9.13078690       7.46237377      -0.00000262      -0.00038514       0.00007866
Re       9.71936673       7.84727340       7.52850206       0.00019875       0.00034822      -0.00036157
8
Lattice="18.93672707302658 0.0 0.0 0.0 18.93672707302658 0.0 0.0 0.0 18.93672707302658" Properties=species:S:1:pos:R:3:forces:R:3 config_type=qcd dft_energy=-73.42654124 gap_energy=-73.07041988084421 relaxed_gap_energy=-73.9621312986161 energy=-73.9621312986161 free_energy=-73.9621312986161 pbc="T T T"
Re      11.16073813       8.68642766       9.26764323      -0.00038021       0.00023156      -0.00027314
Re      10.65818889       9.77507406      11.33826665      -0.00014211       0.00008774      -0.00031251
Re       8.57846832       8.67063490      10.91329180       0.00039654      -0.00044708       0.00055112
Re       9.23630289       7.27644248       9.08331337       0.00032398       0.00057200      -0.00034176
Re      10.53010369      10.42056675       7.74418456       0.00024467      -0.00063848       0.00039765
Re       9.66279120      11.30521120       9.79121682      -0.00012471      -0.00011143       0.00031233
Re       8.47148532       9.21120127       7.90125122      -0.00030501      -0.00014389       0.00035196
Re       7.44882985      10.40134996       9.70774064      -0.00001315       0.00044958      -0.00068565
9
Lattice="17.489148 0.0 0.0 0.0 17.489148 0.0 0.0 0.0 17.489148" Properties=species:S:1:pos:R:3:forces:R:3 config_type=qcd dft_energy=-83.84251807 gap_energy=-82.16689007881662 relaxed_gap_energy=-83.57161209337539 energy=-83.57161209337539 free_energy=-83.57161209337539 pbc="T T T"
Re      10.84058483       7.57372899       8.30337133       0.00031000       0.00008653      -0.00046951
Re       9.98666414       9.94472826       9.27059757       0.00018164       0.00024380       0.00022920
Re       8.80044946       6.95027120       7.39785174       0.00023292      -0.00083471       0.00019217
Re       7.54759805      10.86624257       8.58756495      -0.00036379       0.00016807       0.00005661
Re       9.19048906       9.32970769       7.09601839       0.00053383       0.00013049      -0.00063591
Re       7.63215473       7.56801684       9.48456591       0.00017922       0.00024365       0.00021584
Re       6.84474737       8.90818337       7.56546877      -0.00029990       0.00021156       0.00014784
Re       7.94988241       9.75761173      10.58253707      -0.00017758       0.00011835       0.00038756
Re       9.90859596       7.80267536      10.41319029      -0.00059634      -0.00036775      -0.00012379
10
Lattice="30.0 0.0 0.0 0.0 30.0 0.0 0.0 0.0 30.0" Properties=species:S:1:pos:R:3:forces:R:3 config_type=qcd dft_energy=-94.9609125 gap_energy=-92.86602720114675 relaxed_gap_energy=-93.31844191805993 energy=-93.31844191805993 free_energy=-93.31844191805993 pbc="T T T"
Re      10.38598662      10.05211727       8.26500961       0.00002974       0.00004957      -0.00039328
Re      10.73475397      10.88997174      10.56726584      -0.00042550      -0.00058434      -0.00013800
Re       8.47318036      11.33444208      10.91110492       0.00004401       0.00053679       0.00010313
Re       8.26260249      11.28039805       8.59080547      -0.00010624      -0.00038793       0.00005337
Re       8.79656385       8.38962068       7.35208352       0.00044417       0.00027530      -0.00073930
Re      10.83949942       8.75342431      11.49174010       0.00044280       0.00009052       0.00031877
Re       6.94775684       9.36815033       8.37967652       0.00047116      -0.00066069       0.00008049
Re       8.81770749       9.00944460      10.02057759       0.00004196       0.00021692       0.00093673
Re      11.26970934       8.00008487       9.32878637      -0.00041593      -0.00008654      -0.00000411
Re       9.31548105       6.78523900       8.96089366      -0.00052617       0.00055040      -0.00021780
11
Lattice="18.9406401 0.0 0.0 0.0 18.9406401 0.0 0.0 0.0 18.9406401" Properties=species:S:1:pos:R:3:forces:R:3 config_type=qcd dft_energy=-105.36276777 gap_energy=-103.20680253846612 relaxed_gap_energy=-103.69831160314278 energy=-103.69831160314278 free_energy=-103.69831160314278 pbc="T T T"
Re      10.08074221      11.09684460      11.21161189       0.00023320      -0.00015010      -0.00016386
Re       8.82401880      10.07768401       8.92388157      -0.00011350       0.00008379      -0.00013823
Re      10.33997803      12.07946067       9.15449814       0.00012626      -0.00019783       0.00010775
Re      11.43074471       9.99958456       8.68312170      -0.00031235       0.00008902       0.00011568
Re      11.48503877       7.51392772       8.46751203      -0.00001310       0.00013527       0.00030012
Re       9.00500488       7.47131880       8.74224820       0.00001873       0.00016699       0.00014942
Re      10.12011545       8.78949085       7.01141581      -0.00021325       0.00014058       0.00016260
Re      10.30646252       8.69165908      10.47383487       0.00013342      -0.00012184      -0.00013710
Re       7.77635763      11.13101191      11.00204703      -0.00000002       0.00017343      -0.00017407
Re       7.91196402       8.83582227      11.26464651       0.00000566      -0.00019877      -0.00038578
Re       6.89309353       8.48671609       9.23870278       0.00013495      -0.00012055       0.00016347
12
Lattice="17.296659 0.0 0.0 0.0 17.296659 0.0 0.0 0.0 17.296659" Properties=species:S:1:pos:R:3:forces:R:3 config_type=qcd dft_energy=-115.055809 gap_energy=-113.18803493110269 relaxed_gap_energy=-114.15382694412861 energy=-114.15382694412861 free_energy=-114.15382694412861 pbc="T T T"
Re       7.58667429       8.12020215       6.54853289       0.00003277       0.00013651      -0.00011437
Re      10.85180868       8.75125915       6.83330218      -0.00042384      -0.00040994      -0.00006958
Re       9.85582579       9.43387957       9.11447014      -0.00031336      -0.00018293       0.00034856
Re       7.05758698       9.59586133      10.83081645      -0.00010117       0.00011488      -0.00000563
Re       8.65823576       6.28318145      10.60966538      -0.00019455      -0.00047213       0.00000981
Re       9.60135511       6.86690528       6.28579714       0.00026817       0.00049436       0.00006600
Re       9.94344578       6.98641494       8.70710882      -0.00006351       0.00022450      -0.00001493
Re       8.83780394      10.12093134       6.90047141      -0.00014170      -0.00006097       0.00011241
Re       6.63158907      10.06118944       8.10039604       0.00033354      -0.00025872      -0.00009157
Re       8.13799219      11.20362717       9.47918341       0.00010903      -0.00018027      -0.00005736
Re       9.06277283       8.47037633      11.31004661       0.00037124       0.00053641      -0.00024417
Re       7.55486361       7.88612585       9.06016351       0.00012337       0.00005830       0.00006082
12
Lattice="19.84533293036312 0.0 0.0 0.0 19.84533293036312 0.0 0.0 0.0 19.84533293036312" Properties=species:S:1:pos:R:3:forces:R:3 config_type=qcd dft_energy=-115.0309429 gap_energy=-113.57259229283977 relaxed_gap_energy=-113.972184600236 energy=-113.972184600236 free_energy=-113.972184600236 pbc="T T T"
Re       9.52677258       8.16473374      11.48723917      -0.00013792      -0.00027943       0.00013543
Re      11.70087091      10.82169773      10.85862257       0.00001171      -0.00009881       0.00011539
Re       8.60743913       9.13004484       9.17708430      -0.00069432      -0.00006666      -0.00022783
Re      10.46551069       8.64858005       7.00891188       0.00008266      -0.00020856      -0.00025168
Re      10.44575020      10.90913171       8.38385406       0.00031371       0.00000324       0.00001554
Re      11.08043848       8.74254741       9.51427749       0.00071910      -0.00003808      -0.00016733
Re      10.65260519      12.77626719       9.86545324       0.00014941       0.00030312       0.00005984
Re       8.71222517      10.01196946       6.87104518      -0.00014200      -0.00012253       0.00015025
Re      11.87274630       8.64210319      11.90592728      -0.00023965       0.00041404      -0.00019213
Re       8.72399542      11.36755217      10.41203758       0.00002548      -0.00008489       0.00043950
Re       7.45189371       9.47342698      11.28118483      -0.00026403       0.00000569      -0.00009318
Re       9.83174980      10.38394312      12.30636000       0.00017586       0.00017287       0.00001619
13
Lattice="17.185533 0.0 0.0 0.0 17.185533 0.0 0.0 0.0 17.185533" Properties=species:S:1:pos:R:3:forces:R:3 config_type=qcd dft_energy=-126.28765002 gap_energy=-125.05563510448383 relaxed_gap_energy=-125.48964760039844 energy=-125.48964760039844 free_energy=-125.48964760039844 pbc="T T T"
Re       7.50804547      11.11656133       9.02532392      -0.00019623      -0.00028697      -0.00031949
Re       7.79941995       8.49988840       9.27731090      -0.00049123       0.00019246       0.00023270
Re      10.00192206       7.46025381       8.51868568       0.00054700      -0.00041397      -0.00012784
Re       6.68787790       6.88604148       7.50104946       0.00033291      -0.00025749       0.00029729
Re       9.59855671       7.54355020      10.96361911      -0.00003836       0.00048995      -0.00006762
Re       9.29913780       9.91032123      10.93763396       0.00013842      -0.00049568       0.00002331
Re       8.38804049       8.54714467       6.79561708      -0.00010071       0.00000004      -0.00066629
Re       8.12991774      11.12146324       6.71912743      -0.00018532      -0.00009087       0.00025791
Re       8.16936295       5.88831558       9.08272082      -0.00021675       0.00023497      -0.00035913
Re       9.67578757      10.03855550       8.49036216       0.00033984       0.00061346      -0.00003057
Re       6.32595172       9.74751034       7.46963333       0.00028280       0.00023989       0.00029513
Re       8.77913965       5.98860107       6.77546663      -0.00008602       0.00000792       0.00038313
Re      11.34280449       8.95775764      10.14941402      -0.00032635      -0.00023371       0.00008148
14
Lattice="17.279268 0.0 0.0 0.0 17.279268 0.0 0.0 0.0 17.279268" Properties=species:S:1:pos:R:3:forces:R:3 config_type=qcd dft_energy=-136.79219132 gap_energy=-135.33911304749753 relaxed_gap_energy=-135.82817425976265 energy=-135.82817425976265 free_energy=-135.82817425976265 pbc="T T T"
Re       8.40423943       8.77235081       7.68121721       0.00078550      -0.00045884      -0.00025897
Re      11.23271911       8.82512334       7.84078700      -0.00027814      -0.00058095      -0.00058258
Re       5.84009900       8.86812313       8.08480472      -0.00005526       0.00045123      -0.00017832
Re       9.97476599      10.89861858       7.96980416      -0.00014070       0.00019881      -0.00014604
Re       7.05888551      10.95908979       8.07500730      -0.00041821      -0.00017988      -0.00017967
Re       9.75291079       6.28633743       7.85269078       0.00036415       0.00051889      -0.00059514
Re       7.32929984       6.36001969       7.99107434      -0.00024671       0.00001826      -0.00013854
Re       8.55386729      10.17680466       9.88034435       0.00014915       0.00001597       0.00025960
Re      11.13511804      10.17932216       9.90689636       0.00036872       0.00033709       0.00021118
Re       5.96939120      10.20271222      10.05675170      -0.00046797       0.00027870       0.00046462
Re       9.86264021       7.93190330       9.73581124      -0.00031497       0.00019237      -0.00009270
Re       7.26490228       7.96544210       9.89070752       0.00006110      -0.00013978       0.00026727
Re      10.04112109       7.81064017       6.06117140       0.00030708      -0.00016647       0.00076124
Re       8.53491623       5.71838863       9.92780791      -0.00011372      -0.00048541       0.00020804
15
Lattice="18.617134 0.0 0.0 0.0 18.617134 0.0 0.0 0.0 18.617134" Properties=species:S:1:pos:R:3:forces:R:3 config_type=qcd dft_energy=-146.89836499 gap_energy=-145.81037279228275 relaxed_gap_energy=-146.22683383034158 energy=-146.22683383034158 free_energy=-146.22683383034158 pbc="T T T"
Re       8.89281339       9.79545065      10.02731995      -0.00063539       0.00019992      -0.00024522
Re      10.83878810       9.47839373      11.54564451       0.00010851      -0.00028947       0.00019807
Re       8.51868873       7.74115605      11.38113694       0.00052952       0.00005382      -0.00037912
Re      10.81891232       7.12302390      11.08153621       0.00011640       0.00024956      -0.00009765
Re       6.50320588       9.15598171      10.06882101       0.00008195       0.00009071       0.00045428
Re       9.24831891       7.27774030       9.01165125      -0.00009315       0.00008305       0.00002158
Re      11.29503737       8.81035903       9.15714178      -0.00053977      -0.00016227      -0.00024187
Re       7.87549517      11.32063974       8.27282357      -0.00030209      -0.00026840       0.00030900
Re      12.21008196      10.90702325      10.06384553       0.00000647       0.00008529      -0.00001007
Re      10.16319028      11.89679156      10.32913672       0.00024930       0.00044353       0.00011342
Re      10.32745377      10.93440863       8.07307630       0.00037849       0.00064315       0.00032950
Re       8.56632440      10.59886095       6.15195090       0.00066023      -0.00002082      -0.00062636
Re       7.58305516       8.87924669       7.87798401      -0.00038839      -0.00000684       0.00032371
Re       9.88017849       8.77408720       6.89914312       0.00013208      -0.00072703       0.00012715
Re       6.90696108       6.93534161       9.68729319      -0.00030417      -0.00037420      -0.00027640
16
Lattice="21.94302048313308 0.0 0.0 0.0 21.94302048313308 0.0 0.0 0.0 21.94302048313308" Properties=species:S:1:pos:R:3:forces:R:3 config_type=qcd dft_energy=-156.67905294 gap_energy=-155.56391095785787 relaxed_gap_energy=-156.07388900084698 energy=-156.07388900084698 free_energy=-156.07388900084698 pbc="T T T"
Re      11.48738917      10.89044737      10.97151074      -0.00027999      -0.00002022       0.00002251
Re      11.46100848      10.80637278      13.68995460       0.00013525      -0.00012972       0.00039442
Re      11.79583033       8.76246143      12.31981172       0.00013998      -0.00002917       0.00047198
Re       9.45109604       9.57491723      12.20722977       0.00051601       0.00039864      -0.00026472
Re       9.71520987      12.20578356      12.31178046      -0.00041554      -0.00050933       0.00036968
Re      12.06172627      13.25265890      12.18242255      -0.00007789       0.00051437       0.00009683
Re      13.39858202      11.27113222      12.48252139      -0.00026512      -0.00030909       0.00002242
Re      10.23986875       7.48574315      10.97150659      -0.00012524      -0.00027392      -0.00001041
Re       7.91178433      11.14555572      10.97152806      -0.00015210       0.00043267       0.00000748
Re      10.13832385      14.27571071      10.97151921       0.00046487       0.00003645       0.00000891
Re      13.39856410      11.27113510       9.46048453      -0.00027087      -0.00028901      -0.00005674
Re      12.06171187      13.25266583       9.76059028      -0.00007461       0.00048519      -0.00007702
Re       9.71519615      12.20578418       9.63125839      -0.00041466      -0.00046932      -0.00039307
Re       9.45107997       9.57492802       9.73579304       0.00054184       0.00036616       0.00027509
Re      11.79581523       8.76247448       9.62319439       0.00011909      -0.00004747      -0.00048727
Re      11.46097743      10.80639318       8.25305816       0.00015899      -0.00015621      -0.00038009
17
Lattice="21.62150582644597 0.0 0.0 0.0 21.62150582644597 0.0 0.0 0.0 21.62150582644597" Properties=species:S:1:pos:R:3:forces:R:3 config_type=qcd dft_energy=-167.8053711 gap_energy=-166.93997274803164 relaxed_gap_energy=-167.14208231938676 energy=-167.14208231938676 free_energy=-167.14208231938676 pbc="T T T"
Re      10.98892482      10.94034141      10.81072846      -0.00051058      -0.00049584      -0.00003931
Re      11.09317741      11.01386444      13.51906227       0.00001565       0.00033623       0.00056124
Re      11.72537754       8.72209190      12.04909299       0.00009725      -0.00039853      -0.00079964
Re       9.24258005       9.67081426      12.22284592       0.00000167      -0.00025197      -0.00005384
Re       9.10489490      12.32503368      12.04829597      -0.00018514       0.00036956       0.00012594
Re      11.51312481      13.03528528      12.14836650       0.00039778       0.00027283      -0.00012589
Re      13.14485529      10.79327724      12.14671312      -0.00008759       0.00029012       0.00048554
Re      13.92775219       8.90507106      10.81090130      -0.00016055       0.00025607      -0.00005935
Re       9.71739975       7.72110332      10.80971408      -0.00000042      -0.00020427      -0.00012026
Re       7.53451087      10.72305266      10.80851497      -0.00000418      -0.00023025       0.00001619
Re       9.95869437      14.36327255      10.81217920       0.00024131       0.00022580      -0.00012576
Re      13.14482379      10.79415700       9.47533191       0.00025335       0.00008260      -0.00028320
Re      11.51506259      13.03763662       9.47687422      -0.00050137      -0.00039711      -0.00004179
Re       9.10681330      12.32561188       9.57201627       0.00010511       0.00028731       0.00024666
Re       9.24423453       9.67121436       9.39643232      -0.00006200       0.00027602      -0.00010830
Re      11.72691494       8.72190165       9.57285579      -0.00006633       0.00018306      -0.00004049
Re      11.09365838      11.01907021       8.10287427       0.00046604      -0.00060160       0.00036224
18
Lattice="21.81390952351944 0.0 0.0 0.0 21.81390952351944 0.0 0.0 0.0 21.81390952351944" Properties=species:S:1:pos:R:3:forces:R:3 config_type=qcd dft_energy=-178.91285746 gap_energy=-178.12937941468496 relaxed_gap_energy=-178.31435983440832 energy=-178.31435983440832 free_energy=-178.31435983440832 pbc="T T T"
Re      10.91452795      10.91239253      10.85227968      -0.00008850       0.00097491       0.00020341
Re      10.88174405      10.88882083      13.60542519       0.00031626       0.00005281       0.00038307
Re      11.61079184       8.80224343      12.21917873      -0.00004399      -0.00049796      -0.00016017
Re       9.11243633       9.60383719      12.20701733       0.00007647      -0.00007788      -0.00034467
Re       9.12314110      12.22750597      12.21913058       0.00007046      -0.00004478      -0.00036575
Re      11.61313844      13.02115602      12.22181587      -0.00018760       0.00023714       0.00002438
Re      13.13607829      10.92424185      12.22173837       0.00017475      -0.00002506      -0.00011685
Re      13.71989838       8.83403099      10.88559667      -0.00033408      -0.00003806       0.00041596
Re       9.86248076       7.59281482      10.87709782       0.00020094      -0.00016588       0.00009812
Re       7.43220026      10.93931548      10.87689940       0.00014483       0.00027407       0.00038593
Re       9.80616282      14.22325520      10.88581172      -0.00016301       0.00001240       0.00010200
Re      13.76096062      12.97963080      10.90259448       0.00021934       0.00008209       0.00018414
Re      13.21652836      10.92129182       9.66591943      -0.00022989      -0.00043255      -0.00007700
Re      11.63511751      13.09878393       9.66595882       0.00020185      -0.00012304      -0.00015046
Re       9.08530489      12.25056812       9.58114690      -0.00024769      -0.00032756      -0.00020431
Re       9.04361994       9.55385103       9.59092990       0.00006020      -0.00023802      -0.00051026
Re      11.62088901       8.75878082       9.58112005       0.00013998       0.00019641      -0.00019374
Re      10.75016515      10.79266489       8.26552479      -0.00031029       0.00014095       0.00032619
19
Lattice="21.69283625050263 0.0 0.0 0.0 21.69283625050263 0.0 0.0 0.0 21.69283625050263" Properties=species:S:1:pos:R:3:forces:R:3 config_type=qcd dft_energy=-189.3001484 gap_energy=-188.41568355683856 relaxed_gap_energy=-189.07798688680347 energy=-189.07798688680347 free_energy=-189.07798688680347 pbc="T T T"
Re      10.96441764      10.74886946      10.67639380       0.00041702       0.00007729       0.00005435
Re      11.08398655      10.66898688      13.66316160      -0.00050045      -0.00038228       0.00024584
Re      11.74942964       8.63521097      12.17573837       0.00019338       0.00009712       0.00025061
Re       9.32979344       9.42682536      12.20307525       0.00001742       0.00040630       0.00044260
Re       9.25244697      12.01372128      12.42413243      -0.00015626       0.00021753      -0.00028939
Re      11.72195893      12.75884914      12.17733737      -0.00021717      -0.00023140       0.00012679
Re      13.22654383      10.71986787      12.17979163      -0.00082901      -0.00028885      -0.00031596
Re      13.89976485       8.65698006      10.83464938       0.00082885       0.00009443       0.00044684
Re       9.90890553       7.42197969      10.81578325       0.00052505      -0.00070129      -0.00040912
Re       7.65249590      10.93821567      10.75293676       0.00039556       0.00029467      -0.00005470
Re       7.44962123      13.28756992      10.96366908       0.00033479       0.00014442       0.00011190
Re       9.72698281      13.89580350      10.78904512      -0.00042380      -0.00042070      -0.00051752
Re      13.88421632      12.79188375      10.83375079       0.00086939      -0.00028780      -0.00023720
Re      13.33477099      10.71755945       9.62097639      -0.00015640       0.00013191      -0.00015481
Re      11.81378675      12.89543798       9.59338000      -0.00066566       0.00031471      -0.00019029
Re       9.20152933      12.07504467       9.18775590       0.00063402      -0.00000813      -0.00007709
Re       9.22132220       9.29844829       9.44537231      -0.00069827       0.00008967       0.00035197
Re      11.77940917       8.52047889       9.60869981      -0.00016850      -0.00003800      -0.00048987
Re      10.88056231      10.61021154       8.13629516      -0.00039999       0.00049039       0.00070504
20
Lattice="22.75161346368446 0.0 0.0 0.0 22.75161346368446 0.0 0.0 0.0 22.75161346368446" Properties=species:S:1:pos:R:3:forces:R:3 config_type=qcd dft_energy=-199.70928207 gap_energy=-198.45545280974318 relaxed_gap_energy=-199.77553579350962 energy=-199.77553579350962 free_energy=-199.77553579350962 pbc="T T T"
Re      11.34948853      11.28780925      11.59094551       0.00002018       0.00009457       0.00024204
Re      11.28263481      11.12277498      14.17487071       0.00060587       0.00003332       0.00009999
Re      11.98826677       9.03529356      12.65247844      -0.00006897      -0.00017635       0.00013217
Re       9.53380811       9.83357489      12.68200658      -0.00027453      -0.00022331      -0.00027169
Re       9.57530037      12.57036674      12.99034891      -0.00013960       0.00001287      -0.00031491
Re      12.06295626      13.45723383      12.65055029       0.00015195       0.00007198      -0.00016187
Re      13.54434549      11.27545638      12.96684308      -0.00025000      -0.00049481       0.00011126
Re      14.25084982       9.45902298      11.41173124       0.00000063       0.00010896      -0.00014763
Re      10.24519899       7.89549706      11.36769406      -0.00011524      -0.00024064      -0.00023516
Re       7.93035992      11.51107346      11.46156827       0.00005306       0.00037505       0.00009482
Re       7.76178023      13.86272288      11.30729837       0.00024547      -0.00028857      -0.00006383
Re      10.04801958      14.43852368      11.39796485      -0.00047742      -0.00006181      -0.00051466
Re      14.24428134      13.08337089      11.36522987       0.00039328      -0.00008149       0.00015209
Re      15.75876662      11.27624256      11.35332178       0.00029126       0.00013819      -0.00005125
Re      13.56775961      11.24265579       9.75815057       0.00020086      -0.00033046      -0.00020218
Re      11.96373498      13.22776849       9.99848617      -0.00046090       0.00042441       0.00015534
Re       9.50426474      12.55874070       9.77315600      -0.00015670      -0.00009582       0.00005557
Re       9.59858949       9.97962082      10.05982970       0.00013984       0.00007788       0.00022224
Re      11.98573918       9.19948632      10.04265598      -0.00028951       0.00086783       0.00025122
Re      11.31998982      11.19889939       8.51100425       0.00013047      -0.00021180       0.00044642
21
Lattice="22.5268357804582 0.0 0.0 0.0 22.5268357804582 0.0 0.0 0.0 22.5268357804582" Properties=species:S:1:pos:R:3:forces:R:3 config_type=qcd dft_energy=-210.14178619 gap_energy=-208.2153906942463 relaxed_gap_energy=-211.00630399199702 energy=-211.00630399199702 free_energy=-211.00630399199702 pbc="T T T"
Re      11.27964317      11.33829971      11.30762861       0.00021429       0.00026222      -0.00006709
Re      10.16803494      11.60221591      15.07360812      -0.00014559       0.00005394       0.00012106
Re      11.99240861       8.76433494      13.54402862       0.00051181       0.00004664      -0.00002944
Re       9.77517452      10.03656120      13.24207756      -0.00031176       0.00022573      -0.00001265
Re      10.29650049      13.04728194      13.12847010      -0.00031900       0.00040981      -0.00000162
Re      12.56202275      13.88984877      13.31395157       0.00007759      -0.00085005       0.00016778
Re      12.22524801      11.19752966      13.86898197       0.00009830       0.00017764      -0.00049301
Re      10.79893453       8.62973718      11.29819563       0.00018474      -0.00029359      -0.00057353
Re       8.73422704      11.61588456      11.45352011       0.00025858       0.00012031      -0.00011175
Re      11.76856770      13.86977018      10.85568909       0.00022807       0.00004667       0.00031702