3
Lattice="22.47393354123361 0.0 0.0 0.0 22.47393354123361 0.0 0.0 0.0 22.47393354123361" Properties=species:S:1:pos:R:3:forces:R:3 config_type=qcd dft_energy=-11.49047889 gap_energy=-11.50865751445194 relaxed_gap_energy=-11.508755060447598 energy=-11.508755060447598 free_energy=-11.508755060447598 pbc="T T T"
Rh      12.59471679      11.23696677      11.23696677       0.00077426       0.00000000       0.00000000
Rh      10.55809177      12.41294394      11.23696677      -0.00038713      -0.00060718       0.00000000
Rh      10.55809177      10.06098960      11.23696677      -0.00038713       0.00060718       0.00000000
4
Lattice="30.0 0.0 0.0 0.0 30.0 0.0 0.0 0.0 30.0" Properties=species:S:1:pos:R:3:forces:R:3 config_type=qcd dft_energy=-16.99824163 gap_energy=-16.95081069693789 relaxed_gap_energy=-17.070222384841042 energy=-17.070222384841042 free_energy=-17.070222384841042 pbc="T T T"
Rh       7.23021246       8.34387696       8.69998064      -0.00077357      -0.00038949      -0.00000564
Rh       9.46801287       7.60265039       8.00394726      -0.00002324       0.00058720       0.00025665
Rh       8.89685734       9.99318752       7.96281839       0.00045466      -0.00002362      -0.00027936
Rh       9.18162766       8.83446502      10.11174649       0.00034216      -0.00017409       0.00002835
4
Lattice="17.3650161063663 0.0 0.0 0.0 17.3650161063663 0.0 0.0 0.0 17.3650161063663" Properties=species:S:1:pos:R:3:forces:R:3 config_type=qcd dft_energy=-16.96418847 gap_energy=-16.77124051484203 relaxed_gap_energy=-16.775974283102936 energy=-16.775974283102936 free_energy=-16.775974283102936 pbc="T T T"
Rh       9.84320617       9.84333749       8.68221328      -0.00014465      -0.00063654       0.00001759
Rh       7.52180829       7.52168775       8.68288846       0.00017806       0.00045503       0.00001760
Rh       9.84332510       7.52175096       8.68181963      -0.00027624       0.00073465      -0.00001739
Rh       7.52169266       9.84325601       8.68311084       0.00024282      -0.00055313      -0.00001779
5
Lattice="15.165607 0.0 0.0 0.0 15.165607 0.0 0.0 0.0 15.165607" Properties=species:S:1:pos:R:3:forces:R:3 config_type=qcd dft_energy=-22.70706039 gap_energy=-22.64986488049434 relaxed_gap_energy=-22.67686890739605 energy=-22.67686890739605 free_energy=-22.67686890739605 pbc="T T T"
Rh       8.19749609       7.00546639       9.09768258       0.00047004      -0.00013858       0.00034329
Rh       5.99904999       7.47721891       8.28089406       0.00015076      -0.00054826      -0.00057052
Rh       7.64390668       6.34264545       6.70350345      -0.00065178       0.00019194       0.00057469
Rh       9.13608463       8.30883643       7.32460229      -0.00004633       0.00004750      -0.00002488
Rh       6.93748012       8.77985032       6.50733513       0.00007731       0.00044741      -0.00032258
6
Lattice="23.63138756018941 0.0 0.0 0.0 23.63138756018941 0.0 0.0 0.0 23.63138756018941" Properties=species:S:1:pos:R:3:forces:R:3 config_type=qcd dft_energy=-28.22337679 gap_energy=-28.60671316797007 relaxed_gap_energy=-28.622497615125596 energy=-28.622497615125596 free_energy=-28.622497615125596 pbc="T T T"
Rh      13.06892109      13.06892109      11.81569378       0.00016014       0.00016014      -0.00000000
Rh      10.56246647      13.06892109      11.81569378      -0.00016014       0.00016014      -0.00000000
Rh      10.56246647      10.56246647      11.81569378      -0.00016014      -0.00016014      -0.00000000
Rh      13.06892109      10.56246647      11.81569378       0.00016014      -0.00016014      -0.00000000
Rh      11.81569378      11.81569378      13.58797358      -0.00000000      -0.00000000       0.00054709
Rh      11.81569378      11.81569378      10.04341398      -0.00000000      -0.00000000      -0.00054709
7
Lattice="16.657039 0.0 0.0 0.0 16.657039 0.0 0.0 0.0 16.657039" Properties=species:S:1:pos:R:3:forces:R:3 config_type=qcd dft_energy=-33.9326538 gap_energy=-33.92563214466108 relaxed_gap_energy=-34.02626128547719 energy=-34.02626128547719 free_energy=-34.02626128547719 pbc="T T T"
Rh       6.34156579       8.02417725       7.73262969       0.00054432      -0.00047386       0.00012586
Rh       8.19699089       9.32310531       6.86708359      -0.00007663       0.00009187      -0.00011879
Rh       7.81273071       6.29636322       8.33747911      -0.00038583       0.00064911      -0.00010516
Rh       9.68865159       7.57138841       7.48057220       0.00003541      -0.00026984      -0.00019469
Rh       7.44015684       9.52606387       9.28712382      -0.00034656      -0.00000119       0.00011535
Rh       9.88789739       9.78437036       8.69421609       0.00015796       0.00006249       0.00003379
Rh       8.93164330       7.77416808       9.90053201       0.00007132      -0.00005859       0.00014364
8
Lattice="14.395065 0.0 0.0 0.0 14.395065 0.0 0.0 0.0 14.395065" Properties=species:S:1:pos:R:3:forces:R:3 config_type=qcd dft_energy=-40.75221946 gap_energy=-40.455202424044295 relaxed_gap_energy=-40.47589064993701 energy=-40.47589064993701 free_energy=-40.47589064993701 pbc="T T T"
Rh       5.99922545       5.99917120       5.99921999       0.00002899       0.00049520       0.00002925
Rh       8.39583873       5.99922666       5.99914704      -0.00009484       0.00007801       0.00054358
Rh       5.99932787       8.39576157       5.99932529      -0.00048153       0.00046554      -0.00048258
Rh       8.39591931       8.39584097       5.99923298      -0.00051814      -0.00005212       0.00006893
Rh       5.99914431       5.99922289       8.39583357       0.00054705       0.00007920      -0.00009873
Rh       8.39573573       5.99930467       8.39573812       0.00051160      -0.00049541       0.00051253
Rh       5.99922777       8.39583704       8.39591641       0.00006302      -0.00004713      -0.00051345
Rh       8.39584083       8.39589499       8.39584660      -0.00005615      -0.00052328      -0.00005953
9
Lattice="17.655989 0.0 0.0 0.0 17.655989 0.0 0.0 0.0 17.655989" Properties=species:S:1:pos:R:3:forces:R:3 config_type=qcd dft_energy=-45.89386176 gap_energy=-45.597310734107516 relaxed_gap_energy=-45.660681111786765 energy=-45.660681111786765 free_energy=-45.660681111786765 pbc="T T T"
Rh       7.59321164       7.29865904       7.65161648      -0.00034858      -0.00002856       0.00011156
Rh       9.95755655       7.04009240       7.94756565       0.00007067       0.00002218       0.00033281
Rh       7.38785828       8.13261719       9.88798272      -0.00012643       0.00003681      -0.00028668
Rh       9.78443112       7.87055843      10.18795897       0.00032490      -0.00003183      -0.00000391
Rh       7.93888966       9.52552641       6.83545648      -0.00027970       0.00022004      -0.00017818
Rh       7.73825489      10.38990454       9.06067175      -0.00013212      -0.00034081      -0.00034496
Rh       8.61367817       9.79982404      11.38867518       0.00006279       0.00006429       0.00030843
Rh      10.30323121       9.26696003       7.13138317       0.00016002       0.00028411       0.00011519
Rh      10.13483898      10.12780840       9.36064012       0.00026844      -0.00022624      -0.00005426
10
Lattice="16.496246 0.0 0.0 0.0 16.496246 0.0 0.0 0.0 16.496246" Properties=species:S:1:pos:R:3:forces:R:3 config_type=qcd dft_energy=-51.79690545 gap_energy=-51.49663845850551 relaxed_gap_energy=-51.53356137043984 energy=-51.53356137043984 free_energy=-51.53356137043984 pbc="T T T"
Rh       7.05186339       6.38388754       7.04523855      -0.00016141      -0.00008113      -0.00005482
Rh       9.44429464       6.38387936       7.04516180       0.00013220      -0.00008068      -0.00007259
Rh       7.01104958       8.78296611       7.06136712       0.00008544       0.00010069      -0.00034182
Rh       9.48510771       8.78295771       7.06127376      -0.00005944       0.00010399      -0.00032981
Rh       8.24808349      10.90712621       7.06162183       0.00000939      -0.00004264       0.00010096
Rh       7.05193839       6.38380832       9.45095785      -0.00013877      -0.00008737       0.00007326
Rh       9.44436971       6.38379615       9.45088152       0.00015444      -0.00007670       0.00005369
Rh       7.01114034       8.78288813       9.43500825       0.00006845       0.00009725       0.00033003
Rh       9.48519894       8.78287506       9.43491477      -0.00007920       0.00010652       0.00034281
Rh       8.24818382      10.90704541       9.43480456      -0.00001110      -0.00003994      -0.00010172
11
Lattice="16.719264 0.0 0.0 0.0 16.719264 0.0 0.0 0.0 16.719264" Properties=species:S:1:pos:R:3:forces:R:3 config_type=qcd dft_energy=-57.15390244 gap_energy=-56.330685211695936 relaxed_gap_energy=-56.564572074078086 energy=-56.564572074078086 free_energy=-56.564572074078086 pbc="T T T"
Rh       6.52634047       7.50230050       6.87431068      -0.00008841      -0.00017022      -0.00045197
Rh       8.98192414       8.15972968       7.31024547       0.00008495      -0.00067508       0.00004028
Rh       8.61126013       7.71537796       9.85123459      -0.00027004      -0.00005761      -0.00002070
Rh       7.43540210       9.76788360       6.13917615      -0.00012561       0.00010942      -0.00012610
Rh      10.67275722       9.06280226       9.03577711       0.00022393       0.00011793       0.00015734
Rh      10.48368873       6.56587863       8.55686696      -0.00027733       0.00007021      -0.00014688
Rh       8.07127919       5.87935624       8.09969628       0.00026325       0.00036098       0.00003971
Rh       8.76172452      10.19540059      10.28403497      -0.00009140      -0.00018956      -0.00023845
Rh       7.06582104       9.33868243       8.62555850       0.00028295       0.00067312       0.00014227
Rh       9.12773619      10.68571379       7.81045768       0.00003607       0.00022020       0.00012250
Rh       6.21801827       7.08282630       9.36859359      -0.00003837      -0.00045939       0.00048201
12
Lattice="16.775484 0.0 0.0 0.0 16.775484 0.0 0.0 0.0 16.775484" Properties=species:S:1:pos:R:3:forces:R:3 config_type=qcd dft_energy=-64.63216175 gap_energy=-63.60114280737802 relaxed_gap_energy=-63.711210198496765 energy=-63.711210198496765 free_energy=-63.711210198496765 pbc="T T T"
Rh       7.18532976       7.18818371       5.98497244       0.00009473       0.00010719      -0.00011054
Rh       7.19174916       7.18908825       8.39122891      -0.00018118      -0.00019744       0.00001040
Rh       7.19786684       7.18967024      10.79748853       0.00012499       0.00012157       0.00008163
Rh       9.58026359       7.19084845       5.97872424      -0.00005175       0.00009963      -0.00007739
Rh       9.58642731       7.19176257       8.38498772       0.00010568      -0.00023704       0.00001043
Rh       9.59280148       7.19233730      10.79125017      -0.00004550       0.00010997       0.00008761
Rh       7.18267318       9.58312340       5.98422786       0.00006939      -0.00004036      -0.00007304
Rh       7.18908161       9.58377475       8.39049676      -0.00017450       0.00008712       0.00000914
Rh       7.19521371       9.58460984      10.79676665       0.00007585      -0.00003110       0.00006062
Rh       9.57759756       9.58578252       5.97797756      -0.00005206      -0.00001332      -0.00005660
Rh       9.58376071       9.58644963       8.38425336       0.00010618       0.00004311       0.00000933
Rh       9.59013910       9.58727333      10.79052975      -0.00007183      -0.00004933       0.00004842
13
Lattice="16.920879 0.0 0.0 0.0 16.920879 0.0 0.0 0.0 16.920879" Properties=species:S:1:pos:R:3:forces:R:3 config_type=qcd dft_energy=-69.92459525 gap_energy=-68.98488017168891 relaxed_gap_energy=-69.10780277023402 energy=-69.10780277023402 free_energy=-69.10780277023402 pbc="T T T"
Rh       6.87191056       7.26203853       6.06237300       0.00024775       0.00049822       0.00011341
Rh       7.05701846       7.26499069       8.45875685      -0.00026635       0.00057951      -0.00022773
Rh       7.14185135       7.26219488      10.85789908       0.00040144       0.00038147       0.00031537
Rh       9.25360969       7.25798903       5.87125011       0.00015530       0.00003928      -0.00002061
Rh       9.45170773       7.24302143       8.26807472      -0.00070199       0.00043812      -0.00048486
Rh       9.52664226       7.24301950      10.72364853      -0.00008802      -0.00038952      -0.00003785
Rh       6.87352265       9.65754431       6.06065923       0.00024535      -0.00050174       0.00011346
Rh       7.05862639       9.65776945       8.45704524      -0.00026707      -0.00057843      -0.00022847
Rh       7.14346308       9.66388203      10.85618118       0.00040429      -0.00037999       0.00031456
Rh       9.25522499       9.65811380       5.86953255       0.00015139      -0.00003710      -0.00002044
Rh       9.45334281       9.67624703       8.26633340      -0.00070237      -0.00043614      -0.00048434
Rh       9.52827755       9.67966482      10.72190478      -0.00008468       0.00038652      -0.00003661
Rh      11.37051598       8.45923801       9.51205485       0.00050495      -0.00000021       0.00068411
14
Lattice="17.191688 0.0 0.0 0.0 17.191688 0.0 0.0 0.0 17.191688" Properties=species:S:1:pos:R:3:forces:R:3 config_type=qcd dft_energy=-74.91881831 gap_energy=-74.26875119405803 relaxed_gap_energy=-74.41967826043846 energy=-74.41967826043846 free_energy=-74.41967826043846 pbc="T T T"
Rh       8.57146765       8.60907622       7.51022088       0.00015868      -0.00049021      -0.00006564
Rh      11.15998924       8.61549792       7.36435042      -0.00002359       0.00038421      -0.00005953
Rh       5.97872077       8.64051635       7.47611328      -0.00003872       0.00032621       0.00014228
Rh       9.89968328      10.83431409       7.36988015       0.00047931       0.00067830      -0.00046158
Rh       7.25049288      10.84041994       7.47451097      -0.00015985      -0.00037039      -0.00023348
Rh       9.85671959       6.36225222       7.36590181       0.00025059       0.00035671       0.00082615
Rh       7.30521650       6.34725426       7.37372791      -0.00004538       0.00025499      -0.00032976
Rh       8.65684497      10.29102881       9.50740103       0.00010248      -0.00052009       0.00024014
Rh      11.13148346      10.01763125       9.48214263      -0.00033113      -0.00037816      -0.00006604
Rh       6.17862296       9.99422464       9.65733391      -0.00002983       0.00025045       0.00016886
Rh      10.01082011       7.77860382       9.50200873      -0.00030994       0.00002229      -0.00021852
Rh       7.15807229       7.69846646       9.50941583      -0.00063164      -0.00022201       0.00022717
Rh       8.62960692       5.69029156       9.48582974       0.00012711      -0.00044288       0.00001849
Rh       8.55407538       8.62223845      11.26297872       0.00045191       0.00015058      -0.00018853
15
Lattice="17.129835 0.0 0.0 0.0 17.129835 0.0 0.0 0.0 17.129835" Properties=species:S:1:pos:R:3:forces:R:3 config_type=qcd dft_energy=-80.84967992 gap_energy=-80.19724816736381 relaxed_gap_energy=-80.27308045138685 energy=-80.27308045138685 free_energy=-80.27308045138685 pbc="T T T"
Rh      10.02689031       7.23983434       6.45862874       0.00001426       0.00018546      -0.00027881
Rh       7.01266686       7.27628502       8.51750583      -0.00029038       0.00047752      -0.00005472
Rh       9.89756002       7.23729692      10.75374908       0.00030711       0.00012519       0.00048942
Rh       7.82123933       8.57525269       6.46010527       0.00015654       0.00003572       0.00095915
Rh       9.39194633       8.55550767       8.58976255       0.00009895       0.00002116      -0.00015453
Rh       7.69609180       8.57290179      10.62128112       0.00010114      -0.00001166      -0.00093703
Rh       9.92737810       9.85791207      10.75605043       0.00023190      -0.00009479       0.00060151
Rh       7.04227012       9.88844825       8.51993377      -0.00032882      -0.00041645      -0.00010398
Rh      10.05644420       9.86049342       6.46093506       0.00006827      -0.00030410      -0.00027396
Rh       7.85886193      11.09962353       6.46671104       0.00016372      -0.00016050       0.00008233
Rh       9.29355535      11.09466450       8.58823752      -0.00037485       0.00004452      -0.00004399
Rh       7.73417977      11.09727801      10.61984576       0.00002767      -0.00014393      -0.00012735
Rh       7.67677380       6.04833094      10.61527004       0.00011991       0.00009716      -0.00015502
Rh       9.23601325       6.01924402       8.58367719      -0.00026481       0.00004911      -0.00007064
Rh       7.80189132       6.05068932       6.46206909      -0.00003062       0.00009560       0.00006764
16
Lattice="21.8717620487807 0.0 0.0 0.0 21.8717620487807 0.0 0.0 0.0 21.8717620487807" Properties=species:S:1:pos:R:3:forces:R:3 config_type=qcd dft_energy=-86.97018278 gap_energy=-85.9877100709979 relaxed_gap_energy=-86.04881423495672 energy=-86.04881423495672 free_energy=-86.04881423495672 pbc="T T T"
Rh      11.25141025      10.93586984      10.93587855       0.00078257      -0.00003410       0.00005848
Rh      11.29503817      10.93586829      13.56953506       0.00057740      -0.00001461       0.00044287
Rh      12.01893931       8.82433679      12.21014949      -0.00054249      -0.00043167      -0.00030510
Rh       9.45384384       9.60693947      12.23864451      -0.00006911      -0.00056587       0.00025795
Rh       9.45397891      12.26497772      12.23864067      -0.00006892       0.00057871       0.00025777
Rh      12.01917565      13.04731347      12.21015095      -0.00056037       0.00043351      -0.00029705
Rh      13.52362621      10.93574105      12.18075639      -0.00015502      -0.00000162      -0.00016594
Rh      10.23664617       7.56061260      10.93587991       0.00024087      -0.00020621      -0.00000074
Rh       7.71981001      10.93603163      10.93588010       0.00037990       0.00001718      -0.00000020
Rh      10.23702031      14.31122360      10.93588102       0.00022662       0.00022571       0.00000102
Rh      13.52362553      10.93574088       9.69100855      -0.00011846      -0.00000071       0.00016370
Rh      12.01917762      13.04731271       9.66161434      -0.00055354       0.00046527       0.00029503
Rh       9.45398085      12.26497748       9.63312179      -0.00009270       0.00059686      -0.00026136
Rh       9.45384508       9.60694102       9.63311427      -0.00009167      -0.00058276      -0.00025691
Rh      12.01893838       8.82433894       9.66161126      -0.00053166      -0.00046444       0.00030287
Rh      11.29504009      10.93587090       8.30222956       0.00057658      -0.00001526      -0.00049238
17
Lattice="21.85802060012916 0.0 0.0 0.0 21.85802060012916 0.0 0.0 0.0 21.85802060012916" Properties=species:S:1:pos:R:3:forces:R:3 config_type=qcd dft_energy=-92.81351934 gap_energy=-92.14547546275284 relaxed_gap_energy=-92.23147411810623 energy=-92.23147411810623 free_energy=-92.23147411810623 pbc="T T T"
Rh      11.07937777      11.03818778      10.92900864       0.00038921      -0.00090188       0.00003670
Rh      11.15329592      11.09183135      13.60805844      -0.00016421      -0.00024934      -0.00026184
Rh      11.76699421       8.90649418      12.22453450       0.00027788       0.00023572      -0.00076346
Rh       9.30678769       9.75201996      12.42791287       0.00025784      -0.00033087       0.00020176
Rh       9.26614877      12.35312786      12.22438133       0.00015258       0.00051160       0.00008472
Rh      11.82750485      13.17714936      12.20508272      -0.00021406       0.00064907      -0.00017377
Rh      13.34501175      11.08567390      12.20510328       0.00011027      -0.00055839      -0.00051866
Rh      13.95850294       8.98692831      10.92900796       0.00047690      -0.00000561      -0.00000093
Rh       9.76434712       7.84587372      10.92900940      -0.00067300       0.00005832      -0.00000063
Rh       7.63659080      10.77792853      10.92900947      -0.00052377       0.00016255       0.00000077
Rh      10.02288103      14.41164766      10.92901555      -0.00051475       0.00017120      -0.00000251
Rh      13.34500699      11.08567919       9.65292211       0.00013557      -0.00056073       0.00051637
Rh      11.82749866      13.17715314       9.65293271      -0.00020485       0.00067072       0.00017695
Rh       9.26614928      12.35312903       9.63364327       0.00013501       0.00052501      -0.00008764
Rh       9.30678905       9.75202151       9.43010653       0.00023689      -0.00034508      -0.00020134
Rh      11.76699359       8.90649649       9.63348340       0.00028489       0.00021510       0.00076121
Rh      11.15329469      11.09183311       8.24996292      -0.00016240      -0.00024739       0.00023230
18
Lattice="20.2846840203983 0.0 0.0 0.0 20.2846840203983 0.0 0.0 0.0 20.2846840203983" Properties=species:S:1:pos:R:3:forces:R:3 config_type=qcd dft_energy=-99.68680825 gap_energy=-98.9978439852746 relaxed_gap_energy=-99.18780268562172 energy=-99.18780268562172 free_energy=-99.18780268562172 pbc="T T T"
Rh       9.23262602       8.92255398       8.33267557      -0.00003316       0.00004610      -0.00005692
Rh      10.15369610      10.39989094      10.26512490      -0.00009005       0.00006295       0.00025323
Rh       9.85399437      12.98990626      10.12043840      -0.00001951      -0.00020932      -0.00000458
Rh      10.39342428       7.81225010      10.40118274      -0.00024968       0.00000123       0.00002410
Rh       8.71322908       9.06572597      11.97112990       0.00005800       0.00018955      -0.00009417
Rh      11.29441408       9.31526473      12.33748199       0.00010569      -0.00006814      -0.00052404
Rh       7.89761200       7.64101085      10.05164831      -0.00001257      -0.00021497       0.00000121
Rh      11.02735247      11.91634765      12.18931894      -0.00013854      -0.00005923      -0.00010464
Rh      12.88019013       8.15000511      10.74288225       0.00022293      -0.00020652       0.00004787
Rh      12.71696699      10.67450853      10.62024179      -0.00008614       0.00014018       0.00000728
Rh      11.81595340       9.17149201       8.68394570       0.00007609      -0.00005410       0.00044191
Rh       8.45955448      11.65744414      11.80365180       0.00000766      -0.00006846       0.00006182
Rh      10.64803607      10.26898301       6.73162237      -0.00009321       0.00017383      -0.00005138
Rh       8.97077211      11.51651237       8.22249190      -0.00000218       0.00007324      -0.00013818
Rh       9.63970194      10.54694391      13.79521014      -0.00012645       0.00016647       0.00001503
Rh       7.57624151      10.18412669       9.90568516       0.00026134      -0.00004253       0.00012767
Rh      12.39007924      13.17502577      10.47517766       0.00024583       0.00007843       0.00004825
Rh      11.54675244      11.77316606       8.55082581      -0.00012607      -0.00000871      -0.00005444
19
Lattice="19.36363030708432 0.0 0.0 0.0 19.36363030708432 0.0 0.0 0.0 19.36363030708432" Properties=species:S:1:pos:R:3:forces:R:3 config_type=qcd dft_energy=-105.14273231 gap_energy=-104.24323554399194 relaxed_gap_energy=-104.47527040288466 energy=-104.47527040288466 free_energy=-104.47527040288466 pbc="T T T"
Rh       9.96980719       7.51893950       8.01278440       0.00043322      -0.00004234      -0.00028902
Rh       9.81742586       9.67714459       6.55215222       0.00015567       0.00000743       0.00015005
Rh       7.84859993       9.04448930       8.06908925      -0.00049968       0.00036305      -0.00006556
Rh       7.71160463       6.60076783       8.75869661      -0.00013582      -0.00017380      -0.00001126
Rh      11.98488092       9.26339531       7.98594073      -0.00003166       0.00004516       0.00002035
Rh       8.15742756      11.50556392       7.39874294      -0.00060608      -0.00011337      -0.00017813
Rh       9.36342910       7.33340994      10.54782128      -0.00003132      -0.00016897       0.00052184
Rh       8.93780055       9.50833825      11.80785744       0.00023857       0.00010714       0.00021012
Rh      11.11256014       8.16644859      12.23525532      -0.00033965      -0.00048549       0.00014225
Rh      12.22235183       9.79590211      10.57946318      -0.00014522      -0.00004788      -0.00052201
Rh      10.98459348      10.69936604      12.68408477      -0.00021753       0.00011818       0.00021829
Rh       8.79141799      12.04334169      11.85610448      -0.00006913       0.00017780       0.00020881
Rh      11.82814884       7.40504903       9.84265604      -0.00008646       0.00052538       0.00000363
Rh       7.75432883      10.84528504       9.87136806       0.00004713       0.00014953      -0.00009842
Rh       7.02905243       8.40943177      10.42435718      -0.00002916      -0.00028995      -0.00026383
Rh       8.93935114      13.01010865       9.33733452       0.00013852      -0.00002950       0.00013607
Rh       9.96454466       9.65777112       9.49201262       0.00084933       0.00040561       0.00000153
Rh      10.88085789      11.90353099      10.48289297       0.00020665      -0.00015504      -0.00046689
Rh      10.65630494      11.56620424       8.01587391       0.00012262      -0.00039294       0.00028220
20
Lattice="21.62930566812197 0.0 0.0 0.0 21.62930566812197 0.0 0.0 0.0 21.62930566812197" Properties=species:S:1:pos:R:3:forces:R:3 config_type=qcd dft_energy=-111.59323787 gap_energy=-110.40555267242425 relaxed_gap_energy=-110.76810651886254 energy=-110.76810651886254 free_energy=-110.76810651886254 pbc="T T T"
Rh       8.49791577      10.69279227       8.13892753       0.00005876      -0.00013265       0.00000965
Rh      10.54352563      12.17755789       8.40749018       0.00015552      -0.00011430      -0.00035540
Rh       8.38640063      12.87750417       9.57314305      -0.00001881       0.00042832       0.00054449
Rh      10.80747769       9.64306140       8.29421217       0.00050698      -0.00014770       0.00003691
Rh       8.85147773       8.41365356       9.37354248      -0.00015450       0.00075347       0.00019215
Rh      11.12411463       8.35258569      10.60237454       0.00053506      -0.00025681       0.00057487
Rh      12.75469921      12.35644606       9.55585491       0.00000444      -0.00019032      -0.00067967
Rh      13.01857630       9.82193031       9.44273670      -0.00003356       0.00017483      -0.00051069
Rh      10.93568641      10.83796113      10.57793576      -0.00018699      -0.00053730       0.00021047
Rh      10.60923632      13.29685526      10.82326109      -0.00036468      -0.00006678       0.00025574
Rh      14.32160133      11.16429579      11.16347400      -0.00045656       0.00037029      -0.00006239
Rh      12.94030588      13.24657308      11.93798807       0.00017554       0.00020643       0.00049506
Rh       8.45865814      10.57647552      10.64770842       0.00013951       0.00009232       0.00032643
Rh       8.96762901       8.38265065      11.93484390       0.00025029       0.00063421       0.00009283
Rh      13.40503366       8.78291517      11.73905790       0.00019521      -0.00089808      -0.00032163
Rh      12.31663284      10.88927629      12.65142469      -0.00032954      -0.00005402       0.00033459
Rh       8.51761667      12.70600830      12.12815608      -0.00030633       0.00002822      -0.00058978
Rh      10.80852346      12.89162636      13.31789404      -0.00033466       0.00004335      -0.00014729
Rh      11.25850052       8.56841788      13.12472924       0.00002810      -0.00022453      -0.00003082
Rh       9.76944485      10.61446993      12.85830196       0.00013622      -0.00010895      -0.00037552
21
Lattice="21.73054481641714 0.0 0.0 0.0 21.73054481641714 0.0 0.0 0.0 21.73054481641714" Properties=species:S:1:pos:R:3:forces:R:3 config_type=qcd dft_energy=-118.40070162 gap_energy=-117.19263844622125 relaxed_gap_energy=-117.29922885635284 energy=-117.29922885635284 free_energy=-117.29922885635284 pbc="T T T"
Rh      14.13693126      10.07449974      11.10529207      -0.00020425      -0.00006722       0.00008711
Rh      13.77325143      12.43944135      10.19287061      -0.00006143      -0.00004520      -0.00005552
Rh      12.56596229      11.69326134      12.33348294      -0.00043893      -0.00018819      -0.00039054
Rh      12.78957105       9.26021518      13.12505870       0.00012360      -0.00001403       0.00011048
Rh      12.06236197      13.99006842      11.30011315      -0.00006449      -0.00002337       0.00005013
Rh      12.63011013      10.44036744       9.06069719       0.00003347      -0.00000519       0.00014075
Rh      10.86526552      10.86523232      10.86527507       0.00037260       0.00033710       0.00033084
Rh      12.06243757       8.60564814      10.75285134       0.00009810       0.00012655       0.00005467
Rh      11.07867671      10.81078299      14.23245522       0.00003103       0.00019117      -0.00013082
Rh      10.71512418      13.17574733      13.31989189      -0.00008159      -0.00016575       0.00004097
Rh      11.43288868      12.69994603       9.17311084       0.00010858      -0.00001146       0.00010895
Rh      10.29758751       9.03058967      12.55743806       0.00007750       0.00003630       0.00003586
Rh      11.01547003       8.55482402       8.41067887      -0.00006278      -0.00015657      -0.00012880
Rh       9.66810339      13.12485157      10.97766722       0.00007710      -0.00001068       0.00013377
Rh       9.10044542      11.29020352      12.66988227       0.00020890       0.00002309      -0.00007224
Rh       9.16463753      10.03728074       9.39707863      -0.00021472      -0.00003978      -0.00005959
Rh      10.65185916      10.91974979       7.49814709      -0.00012832       0.00000807      -0.00008312
Rh       9.66816375       7.74042627      10.43046774       0.00007993       0.00016105      -0.00021485