3
Lattice="15.382869 0.0 0.0 0.0 15.382869 0.0 0.0 0.0 15.382869" Properties=species:S:1:pos:R:3:forces:R:3 config_type=qcd dft_energy=-15.38121787 gap_energy=-15.431384876484271 relaxed_gap_energy=-15.512505700748674 energy=-15.512505700748674 free_energy=-15.512505700748674 pbc="T T T"
Ru       6.54732467       7.03342152       7.69143450      -0.00078571      -0.00054225       0.00000000
Ru       7.69361074       9.01128161       7.69143450       0.00015167       0.00082654       0.00000000
Ru       8.83336809       7.02960038       7.69143450       0.00063404      -0.00028429       0.00000000
4
Lattice="30.0 0.0 0.0 0.0 30.0 0.0 0.0 0.0 30.0" Properties=species:S:1:pos:R:3:forces:R:3 config_type=qcd dft_energy=-22.83764869 gap_energy=-22.52964435894104 relaxed_gap_energy=-22.5625690328272 energy=-22.5625690328272 free_energy=-22.5625690328272 pbc="T T T"
Ru      10.09177539       9.03873347       8.40635798       0.00017015       0.00016642       0.00025630
Ru       8.24335164      10.04163712       9.10962898      -0.00032438      -0.00054379      -0.00033272
Ru       7.10737838       8.16181444       8.80440717       0.00034266       0.00045924       0.00030345
Ru       8.95341889       7.16222552       8.09024879      -0.00018844      -0.00008187      -0.00022704
5
Lattice="17.68055953937054 0.0 0.0 0.0 17.68055953937054 0.0 0.0 0.0 17.68055953937054" Properties=species:S:1:pos:R:3:forces:R:3 config_type=qcd dft_energy=-29.86629289 gap_energy=-30.132209838217634 relaxed_gap_energy=-30.139906989906777 energy=-30.139906989906777 free_energy=-30.139906989906777 pbc="T T T"
Ru       9.94626977       8.07963463       9.79467796       0.00005537       0.00002350       0.00040755
Ru       7.47394865       8.90375257       7.92275297       0.00014313       0.00020610       0.00047501
Ru       9.56554085       8.10379358       7.55815550       0.00013663      -0.00030561      -0.00064593
Ru       7.85495632       8.88040488      10.15930846      -0.00021051      -0.00008098      -0.00017782
Ru       9.36068326      10.23381317       8.76650396      -0.00012462       0.00015700      -0.00005882
6
Lattice="17.90632056923256 0.0 0.0 0.0 17.90632056923256 0.0 0.0 0.0 17.90632056923256" Properties=species:S:1:pos:R:3:forces:R:3 config_type=qcd dft_energy=-37.52330181 gap_energy=-37.97703437138803 relaxed_gap_energy=-38.03161592443067 energy=-38.03161592443067 free_energy=-38.03161592443067 pbc="T T T"
Ru       9.93186318      10.42231127       9.09072547      -0.00028320      -0.00068400       0.00058381
Ru      10.50502521       8.28898818       9.48768979      -0.00024479       0.00037711      -0.00049129
Ru       8.94481280       7.56530582       7.85367985       0.00081829      -0.00007967       0.00016288
Ru       8.37304011       9.69875792       7.45561713      -0.00059351      -0.00052671       0.00011526
Ru       8.26896220       7.80538994      10.11491056      -0.00034427       0.00022323      -0.00051156
Ru       7.69525821       9.93820856       9.71633891       0.00064749       0.00069005       0.00014090
7
Lattice="16.434137 0.0 0.0 0.0 16.434137 0.0 0.0 0.0 16.434137" Properties=species:S:1:pos:R:3:forces:R:3 config_type=qcd dft_energy=-45.16717244 gap_energy=-45.329025409497376 relaxed_gap_energy=-45.528926674639365 energy=-45.528926674639365 free_energy=-45.528926674639365 pbc="T T T"
Ru       8.10808462      10.06821390       8.25079404       0.00010428      -0.00055465       0.00000048
Ru       6.65940907       8.63232197       7.24048761       0.00023090      -0.00030634       0.00026004
Ru       9.80350484       8.81474690       7.39328679      -0.00016137      -0.00060793       0.00003640
Ru       8.35020932       7.14277724       6.75974739      -0.00015118       0.00062203       0.00027532
Ru       8.10243178       8.66616147      10.04394974      -0.00015808      -0.00027410      -0.00019904
Ru       7.00492119       7.02571033       8.85535891       0.00057977       0.00042508      -0.00025693
Ru       9.49091867       7.16954769       8.97585500      -0.00044432       0.00069590      -0.00011629
8
Lattice="15.250178 0.0 0.0 0.0 15.250178 0.0 0.0 0.0 15.250178" Properties=species:S:1:pos:R:3:forces:R:3 config_type=qcd dft_energy=-54.55858332 gap_energy=-53.07584825323465 relaxed_gap_energy=-53.12939629650465 energy=-53.12939629650465 free_energy=-53.12939629650465 pbc="T T T"
Ru       5.99370796       7.62532078       6.47436926      -0.00046953       0.00011839      -0.00031080
Ru       7.62385860       9.25539390       6.47271393      -0.00017874       0.00048927      -0.00027156
Ru       9.25396278       7.62526889       6.47049776       0.00043884      -0.00012100      -0.00028582
Ru       7.62376697       5.99519018       6.47210203       0.00016188      -0.00048114      -0.00026618
Ru       5.99623469       7.62487081       8.77970723      -0.00047494       0.00018101       0.00024568
Ru       9.25645006       7.62489588       8.77583548       0.00051954      -0.00018628       0.00028380
Ru       7.62637486       9.25500648       8.77804915      -0.00013154       0.00046821       0.00030192
Ru       7.62635607       5.99476508       8.77743716       0.00013448      -0.00046845       0.00030297
9
Lattice="17.655989 0.0 0.0 0.0 17.655989 0.0 0.0 0.0 17.655989" Properties=species:S:1:pos:R:3:forces:R:3 config_type=qcd dft_energy=-59.78611341 gap_energy=-59.34269866000042 relaxed_gap_energy=-59.6029906111023 energy=-59.6029906111023 free_energy=-59.6029906111023 pbc="T T T"
Ru       7.54443525       7.76041899       7.91573050      -0.00010073       0.00033960       0.00004067
Ru       9.74234098       7.19250607       7.89767118      -0.00023426       0.00058986       0.00021956
Ru       7.62188199       7.91034565      10.34360733      -0.00024689      -0.00062184      -0.00027277
Ru       9.91239902       7.71856099      10.12305279       0.00021079       0.00076152      -0.00042138
Ru       8.19187778       9.69064525       6.58300014       0.00039821      -0.00071405       0.00052633
Ru       7.73109978       9.96839092       8.85444436       0.00048695       0.00037642      -0.00006982
Ru       8.34910921       9.99346958      11.17594154      -0.00009697      -0.00020861      -0.00010600
Ru      10.36135850       9.30528706       7.17663573      -0.00051169      -0.00022380       0.00023780
Ru       9.99744801       9.91232600       9.38186694       0.00009458      -0.00029910      -0.00015438
10
Lattice="16.473747 0.0 0.0 0.0 16.473747 0.0 0.0 0.0 16.473747" Properties=species:S:1:pos:R:3:forces:R:3 config_type=qcd dft_energy=-67.99623881 gap_energy=-66.699839653456 relaxed_gap_energy=-66.81122587308501 energy=-66.81122587308501 free_energy=-66.81122587308501 pbc="T T T"
Ru       7.08329786       6.43380000       7.07452320      -0.00029276      -0.00011406      -0.00060620
Ru       9.39064064       6.43380337       7.07447735       0.00025639      -0.00020544      -0.00067471
Ru       7.03453142       8.74484273       7.08930723       0.00022984       0.00034740       0.00013665
Ru       9.43893009       8.74484411       7.08914839      -0.00022535       0.00025448       0.00015608
Ru       8.23671745      10.82736215       7.11098418       0.00008460      -0.00028776       0.00016610
Ru       7.08326691       6.43371214       9.39907190      -0.00020761      -0.00015736       0.00066860
Ru       9.39060849       6.43365471       9.39906325       0.00034445      -0.00013811       0.00061767
Ru       7.03468928       8.74477086       9.38467064       0.00014925       0.00030487      -0.00015495
Ru       9.43907962       8.74468768       9.38447608      -0.00027346       0.00030733      -0.00015547
Ru       8.23697322      10.82725725       9.36301279      -0.00006535      -0.00031135      -0.00015375
11
Lattice="19.5260825052943 0.0 0.0 0.0 19.5260825052943 0.0 0.0 0.0 19.5260825052943" Properties=species:S:1:pos:R:3:forces:R:3 config_type=qcd dft_energy=-74.55627503 gap_energy=-73.8316161090388 relaxed_gap_energy=-73.9820084955104 energy=-73.9820084955104 free_energy=-73.9820084955104 pbc="T T T"
Ru       9.20796604       6.90860551       7.90667994      -0.00023382       0.00001201      -0.00003811
Ru      11.30050496       7.89613018       7.82201665       0.00004120       0.00041948      -0.00016603
Ru       8.41605767       8.70566610       6.65664109       0.00005531      -0.00042606       0.00022781
Ru      10.44322712       9.79191827       6.83785320       0.00011401      -0.00015851      -0.00009456
Ru      10.17951336       8.34133148       9.86711154      -0.00014511      -0.00039306       0.00028479
Ru       9.40757285       9.00675920      11.97086247      -0.00034865       0.00036098      -0.00002717
Ru       9.88082053      10.50558662       8.99134405       0.00037067       0.00008586       0.00020320
Ru       8.09095068       8.96918277       8.96897813      -0.00020026       0.00053128      -0.00047281
Ru       9.72509148      11.17394946      11.26560833      -0.00012494      -0.00008145      -0.00035264
Ru       7.25175517       9.12417015      11.15655587       0.00055982      -0.00025838      -0.00012085
Ru       7.67257545      11.20064192      10.19327688      -0.00008823      -0.00009217       0.00055637
12
Lattice="16.905727 0.0 0.0 0.0 16.905727 0.0 0.0 0.0 16.905727" Properties=species:S:1:pos:R:3:forces:R:3 config_type=qcd dft_energy=-84.22890749 gap_energy=-81.28832129052276 relaxed_gap_energy=-81.54735023338368 energy=-81.54735023338368 free_energy=-81.54735023338368 pbc="T T T"
Ru       7.29425584       7.29712266       6.10311859       0.00025862       0.00018941       0.00020591
Ru       7.30539682       7.30318698       8.45639732       0.00050958       0.00053222       0.00032043
Ru       7.30596576       7.29850856      10.80961781      -0.00005731       0.00000503      -0.00026460
Ru       9.60217220       7.29923491       6.09679500       0.00026449      -0.00015549      -0.00026067
Ru       9.60281352       7.30513340       8.45004589       0.00056584      -0.00059526       0.00013128
Ru       9.61387297       7.30072532      10.80342537       0.00027945      -0.00032532      -0.00008906
Ru       7.29191941       9.60498543       6.10227620      -0.00009771       0.00015088      -0.00004995
Ru       7.30280732       9.60062407       8.45562658      -0.00062047       0.00062090       0.00032393
Ru       7.30359528       9.60647576      10.80893869      -0.00039293       0.00032162       0.00008852
Ru       9.59984275       9.60723607       6.09615706      -0.00006624      -0.00017035      -0.00002382
Ru       9.60022904       9.60254751       8.44933146      -0.00056108      -0.00053897       0.00007279
Ru       9.61149109       9.60858133      10.80263202      -0.00008223      -0.00003469      -0.00045476
13
Lattice="17.920879 0.0 0.0 0.0 17.920879 0.0 0.0 0.0 17.920879" Properties=species:S:1:pos:R:3:forces:R:3 config_type=qcd dft_energy=-90.52260866 gap_energy=-88.18723220521647 relaxed_gap_energy=-88.923478574995 energy=-88.923478574995 free_energy=-88.923478574995 pbc="T T T"
Ru       7.34658703       7.76334290       6.60681868      -0.00004218       0.00007548       0.00037184
Ru       7.36116552       7.49574471       8.98161223      -0.00009367      -0.00004196      -0.00012861
Ru       7.65076938       7.76023805      11.32443628      -0.00055542       0.00013187       0.00058907
Ru       9.65040822       7.84449617       6.48433315       0.00031113       0.00028252      -0.00008937
Ru       9.66947805       8.06234841       8.76670887       0.00063164       0.00041418      -0.00014861
Ru       9.93619426       7.84654102      11.12928451      -0.00007407      -0.00025026      -0.00005169
Ru       7.48449836      10.08393255       6.71354598       0.00036001      -0.00065091       0.00020227
Ru       7.89797313       9.79639969       8.92633786      -0.00030183      -0.00007270      -0.00089576
Ru       7.72447566      10.08256099      11.17441585       0.00017136       0.00006523       0.00010786
Ru       9.77738680      10.16398666       6.39067866      -0.00044224       0.00041630       0.00010478
Ru      10.19403209      10.39360659       8.74413556      -0.00005454      -0.00003032       0.00003016
Ru      10.03976178      10.22638439      11.25028872       0.00024537       0.00015353       0.00008255
Ru      11.75298322       8.96613136       9.99311716      -0.00015555      -0.00049296      -0.00017450
14
Lattice="17.76197 0.0 0.0 0.0 17.76197 0.0 0.0 0.0 17.76197" Properties=species:S:1:pos:R:3:forces:R:3 config_type=qcd dft_energy=-97.48448451 gap_energy=-95.76693731692787 relaxed_gap_energy=-96.00487802262772 energy=-96.00487802262772 free_energy=-96.00487802262772 pbc="T T T"
Ru       6.87124891       7.74715660       6.14956369       0.00018609      -0.00002108       0.00004676
Ru       6.88385829      10.01752114       6.14144282       0.00020041       0.00004548       0.00004480
Ru       7.29169780       7.75017068       8.51072671       0.00007248       0.00046708       0.00005588
Ru       7.30436587      10.02675920       8.50258454       0.00007532      -0.00047502       0.00005108
Ru       7.75669406       7.75365842      10.91056883       0.00022909       0.00062764      -0.00010398
Ru       7.76944774      10.03529575      10.90240972       0.00019841      -0.00065454      -0.00011073
Ru       9.13477971       7.71875410       6.79991218      -0.00012769      -0.00059548      -0.00015030
Ru       9.14759284      10.02542028       6.79165555      -0.00010409       0.00059115      -0.00016412
Ru       9.62235732       7.69432405       9.25345657      -0.00017636      -0.00006484       0.00039946
Ru       9.63553995      10.06195468       9.24497766      -0.00016787       0.00006601       0.00040268
Ru      10.01786900       7.73229285      11.69282220      -0.00034535       0.00060048       0.00023109
Ru      10.03077205      10.03697849      11.68457461      -0.00038975      -0.00057085       0.00023338
Ru      11.65183578       8.86992724      10.10481960       0.00033935      -0.00000614      -0.00069244
Ru      11.21573066       8.86357652       7.64427531       0.00000995      -0.00000990      -0.00024356
15
Lattice="18.222127 0.0 0.0 0.0 18.222127 0.0 0.0 0.0 18.222127" Properties=species:S:1:pos:R:3:forces:R:3 config_type=qcd dft_energy=-104.28375792 gap_energy=-103.2864236496924 relaxed_gap_energy=-103.54075746235675 energy=-103.54075746235675 free_energy=-103.54075746235675 pbc="T T T"
Ru       8.85777499       8.99982415       9.11135144       0.00054708      -0.00071229       0.00003446
Ru      11.39248392       8.90711803       9.11940567      -0.00022204       0.00069821       0.00000929
Ru       6.12774678       9.20876097       9.10119561      -0.00035990      -0.00040777      -0.00000214
Ru      10.41627150      11.16669408       9.10394427       0.00016929      -0.00011537       0.00006268
Ru       7.28678944      11.20313091       9.09405999       0.00094491       0.00002387      -0.00004231
Ru      10.07464413       6.71048418       9.12712547       0.00041619      -0.00024177      -0.00008699
Ru       7.77942517       6.40385301       9.12106740      -0.00022090      -0.00014318       0.00006258
Ru       8.77563113      10.60281146      10.87786298      -0.00009897      -0.00000606      -0.00037239
Ru      11.22731346      10.20469259      11.23112518      -0.00046025      -0.00024910      -0.00023090
Ru       9.92643995       8.18425294      11.13999742       0.00014516       0.00037273      -0.00011755
Ru       7.41232077       8.08199490      10.76070602      -0.00019097       0.00032511      -0.00023190
Ru       8.78644067      10.58298072       7.32617698      -0.00015871      -0.00011568       0.00022530
Ru      11.24026963      10.18184677       6.99238920      -0.00019211      -0.00033730       0.00035650
Ru       9.93927665       8.16242786       7.09784501      -0.00000825       0.00056105      -0.00001244
Ru       7.42312430       8.06507992       7.46169984      -0.00031052       0.00034757       0.00034581
16
Lattice="21.0087833640063 0.0 0.0 0.0 21.0087833640063 0.0 0.0 0.0 21.0087833640063" Properties=species:S:1:pos:R:3:forces:R:3 config_type=qcd dft_energy=-111.89583892 gap_energy=-111.02770066109275 relaxed_gap_energy=-111.22331371749671 energy=-111.22331371749671 free_energy=-111.22331371749671 pbc="T T T"
Ru       8.61575271      11.59708119      12.96888136      -0.00007459       0.00032160      -0.00016812
Ru       8.31086975       8.80107954       9.27596301      -0.00007343      -0.00002928       0.00048895
Ru      10.08703116       8.23709833      10.89637058       0.00020231       0.00004882      -0.00030494
Ru      10.31918724      12.54342422      11.18900714      -0.00009262      -0.00014293      -0.00014297
Ru       9.01330829      10.47244146      10.92465018      -0.00027315      -0.00002223      -0.00020481
Ru      10.97952882      11.80293482      13.48114015      -0.00024322      -0.00016499       0.00001166
Ru      10.80359428      11.22525443       9.16588771      -0.00018634       0.00013025      -0.00020521
Ru      13.31841069      10.96237497       9.88738040       0.00004839      -0.00022958       0.00005628
Ru      11.72694239       8.92654072       9.28648940      -0.00031853      -0.00000136      -0.00027594
Ru      12.75633333      12.55049713      11.73551119      -0.00005042      -0.00008555      -0.00011902
Ru       9.94515201       9.54287930      13.20109349      -0.00001506       0.00006966      -0.00004169
Ru      11.50722997      10.39559098      11.47869109       0.00030652      -0.00011608       0.00029791
Ru      12.20960863      13.10957648       9.43734779       0.00030622       0.00000470       0.00008034
Ru       9.90293456       9.46927377       7.71334614      -0.00029565       0.00067667       0.00007301
Ru       8.41489926      11.28459807       8.71128606       0.00019744      -0.00029166       0.00024816
Ru      10.15948381       7.14962150       8.71722121       0.00056212      -0.00016804       0.00020638
17
Lattice="20.51001581524685 0.0 0.0 0.0 20.51001581524685 0.0 0.0 0.0 20.51001581524685" Properties=species:S:1:pos:R:3:forces:R:3 config_type=qcd dft_energy=-119.78831284 gap_energy=-118.75042073093088 relaxed_gap_energy=-118.91640474586573 energy=-118.91640474586573 free_energy=-118.91640474586573 pbc="T T T"
Ru       8.85170346      13.28285178       9.63199601       0.00027020      -0.00011203       0.00010058
Ru      10.31506266      12.43773684      11.44148241      -0.00037104      -0.00025313       0.00015688
Ru      12.63221959      10.95724274      10.43471823      -0.00050550       0.00028462      -0.00003362
Ru      10.75627055      12.05757215       8.76916956       0.00010083      -0.00031731       0.00053397
Ru       8.02587578      11.54047659      11.15509121       0.00025044      -0.00040743       0.00016257
Ru      12.69130278      10.84211227       7.96456566      -0.00013082      -0.00021246       0.00000266
Ru      10.27374465      10.27717175      10.26554677       0.00042618       0.00000121      -0.00008867
Ru       9.17940625      11.27879461      13.30826115       0.00025980       0.00018279      -0.00006318
Ru      11.07996481      10.02222878      12.48514757      -0.00003981      -0.00005593      -0.00051838
Ru      12.33481328       8.79249566       9.27181080       0.00005961       0.00011537      -0.00009429
Ru       8.63805126       9.23422715      11.78833385       0.00036636       0.00009212      -0.00043314
Ru      10.42485609       9.56265593       7.91007146      -0.00030988      -0.00005804       0.00080064
Ru       8.37658608      10.86794454       8.80442116       0.00033115      -0.00026861      -0.00032669
Ru      13.00788639       8.82535162      11.63491740      -0.00038528       0.00024194      -0.00037739
Ru       7.62155527       8.79423129       9.68596405       0.00027487      -0.00005217      -0.00045735
Ru      10.68513742       7.92760660      10.89338545      -0.00013002       0.00037577       0.00061061
Ru       9.44069812       7.63443416       8.89025170      -0.00046709       0.00044329       0.00002482
18
Lattice="20.56751508535121 0.0 0.0 0.0 20.56751508535121 0.0 0.0 0.0 20.56751508535121" Properties=species:S:1:pos:R:3:forces:R:3 config_type=qcd dft_energy=-127.15928071 gap_energy=-126.06020570751241 relaxed_gap_energy=-126.25270332328006 energy=-126.25270332328006 free_energy=-126.25270332328006 pbc="T T T"
Ru      13.49980662      11.87571159      11.09071845      -0.00032789      -0.00005767      -0.00014651
Ru      11.42735750      12.83163348      10.22968491       0.00026732       0.00000111       0.00001459
Ru      11.41190518       7.44771070      12.15719709       0.00019257       0.00012583      -0.00007094
Ru       8.28966800      10.03597904       7.23779460       0.00047425      -0.00033805       0.00008302
Ru       7.60722302      12.17150037       8.50296557      -0.00015205       0.00035162      -0.00025021
Ru      11.36707340      11.86980726      12.50763862      -0.00022122      -0.00030045      -0.00043720
Ru      10.37065954      10.50798270      10.83682581       0.00033151       0.00067152      -0.00023423
Ru       9.23484126       8.27908302      11.30578440      -0.00013994      -0.00007531      -0.00014874
Ru       8.12666554      10.12058993       9.72089380      -0.00036683      -0.00012800       0.00022393
Ru       8.92768373      12.52804502      10.50500176       0.00034605      -0.00023089       0.00031884
Ru      12.33694326      10.65394488       9.27214389       0.00008838       0.00010457       0.00015414
Ru      12.53909641       9.70275097      11.62897147       0.00004046       0.00005124       0.00022868
Ru      10.56859454       9.45046803      13.20104003      -0.00006601      -0.00015321       0.00014694
Ru      11.24851704       8.40653372       9.81780145      -0.00002930       0.00012712      -0.00029316
Ru       9.00214269       8.10283373       8.75845179       0.00011961       0.00009585      -0.00011586
Ru       9.97779209      11.36633546       8.45604251       0.00002813      -0.00019042       0.00006850
Ru      10.73873596       9.30088171       7.51467411      -0.00048399      -0.00006158       0.00036199
Ru       8.43293000      10.45584417      12.36400552      -0.00010103       0.00000673       0.00009622
19
Lattice="20.84639287094661 0.0 0.0 0.0 20.84639287094661 0.0 0.0 0.0 20.84639287094661" Properties=species:S:1:pos:R:3:forces:R:3 config_type=qcd dft_energy=-135.79912744 gap_energy=-134.16141161928596 relaxed_gap_energy=-135.67668558876176 energy=-135.67668558876176 free_energy=-135.67668558876176 pbc="T T T"
Ru       9.09839766      11.75406772       7.38824205      -0.00017567       0.00005043      -0.00006041
Ru       8.18050215       7.65684938      10.18898645       0.00023197      -0.00037402      -0.00005178
Ru      10.88365777      12.47948680       9.01772718      -0.00057185       0.00005610      -0.00032433
Ru       9.96299423       8.36686370      11.82859092      -0.00043085      -0.00004848       0.00065116
Ru      12.86308112       8.60305182       8.56002917      -0.00001833       0.00013731      -0.00010096
Ru      10.52234153       8.12139306       9.37071321      -0.00003970       0.00029782      -0.00039507
Ru      10.42322882      10.42317479      10.42319030      -0.00027013       0.00015749      -0.00033348
Ru      10.98270725      10.17762186       7.96512050       0.00032415       0.00019311      -0.00021278
Ru      12.66555067      13.18987047      10.65704031       0.00005087       0.00003700       0.00056344
Ru       8.53378265      12.00433497       9.83518874       0.00024659      -0.00001845       0.00050162
Ru      12.21335799      11.14390844      12.06385086       0.00056120      -0.00022800      -0.00029506
Ru      10.32396730      12.72482466      11.47592946      -0.00017536       0.00055365      -0.00050872
Ru       8.63292481       9.70275626       8.78260175       0.00000216      -0.00039992       0.00013331
Ru       8.07341230       9.94800272      11.24081425      -0.00001583       0.00035165      -0.00021679
Ru      12.77298042      10.89836130       9.60561320       0.00022840      -0.00025688       0.00008337
Ru       9.86368359      10.66861826      12.88128806      -0.00028601      -0.00036803       0.00074145
Ru       7.98311578      12.24299811      12.28655937       0.00024138       0.00007173      -0.00024448
Ru      11.74827333       9.09233783      13.45807745      -0.00005370       0.00023896      -0.00012070
Ru      12.31277291       8.84221012      11.01116903       0.00015071      -0.00045146       0.00019023
20
Lattice="21.01910730042288 0.0 0.0 0.0 21.01910730042288 0.0 0.0 0.0 21.01910730042288" Properties=species:S:1:pos:R:3:forces:R:3 config_type=qcd dft_energy=-143.66208971 gap_energy=-142.02536937682564 relaxed_gap_energy=-142.71213204116373 energy=-142.71213204116373 free_energy=-142.71213204116373 pbc="T T T"
Ru      12.61813767       9.02185778       8.01833879       0.00004325       0.00029059       0.00044746
Ru       8.48025897      12.13965875      10.20793433      -0.00037856       0.00027814       0.00061675
Ru      11.99824147       9.65751945      12.41945886       0.00038776      -0.00024122       0.00028017
Ru       8.22927760       7.80106395       9.89149422      -0.00019840       0.00010500       0.00024539
Ru      12.30868908       7.63438337      10.82185386      -0.00022459      -0.00049117       0.00002349
Ru       9.03437985      12.39645394       7.82968597       0.00036487      -0.00012670      -0.00008844
Ru      10.86742539      12.86864252       9.50567431      -0.00044578      -0.00028041      -0.00010785
Ru      11.05191373      10.82629684       8.09921974       0.00032668       0.00039659       0.00023543
Ru      10.62712350       8.40204526       9.18748366       0.00022747      -0.00062707      -0.00034019
Ru       9.68016255      10.41710726      13.10787930      -0.00014606      -0.00002226      -0.00022120
Ru      11.68755164      11.75234171      13.73921827       0.00027847       0.00038883       0.00006182
Ru       8.72417782      10.06561762       8.82313654      -0.00057328      -0.00002277      -0.00079935
Ru      12.41019063      12.00853181      11.36452293       0.00010902      -0.00023632      -0.00040050
Ru       8.07907553       9.85135935      11.23489431       0.00027346      -0.00024521       0.00015502
Ru      13.07666353      12.01694732       8.85426213      -0.00018607       0.00054407       0.00035883
Ru      10.07934650      12.69562407      12.08553772       0.00035723       0.00037881      -0.00050958
Ru      10.05008817       8.20647217      11.59816876      -0.00037732      -0.00020105      -0.00014475
Ru      12.94110552       9.91676393      10.13787605       0.00043042       0.00020914      -0.00003910
Ru      10.46239744      10.56513419      10.61467793      -0.00033969      -0.00012304       0.00021096
Ru       7.78486643      11.94725172      12.64975532       0.00007113       0.00002605       0.00001562
21
Lattice="21.56134925580671 0.0 0.0 0.0 21.56134925580671 0.0 0.0 0.0 21.56134925580671" Properties=species:S:1:pos:R:3:forces:R:3 config_type=qcd dft_energy=-151.31131038 gap_energy=-149.8300022764151 relaxed_gap_energy=-150.50041954903045 energy=-150.50041954903045 free_energy=-150.50041954903045 pbc="T T T"
Ru      13.96247976      10.18622559      12.51138963       0.00010026       0.00037802      -0.00020908
Ru      13.21620457      10.28458471      10.18373274       0.00028351      -0.00040710       0.00024134
Ru      12.64893634      10.40567782       7.66554119      -0.00029283      -0.00012308       0.00011083
Ru      12.74058017      12.26087342      11.66139274      -0.00038157      -0.00009753       0.00019442
Ru      12.06576895      12.36758175       9.24297870      -0.00023945       0.00047963      -0.00014044
Ru      11.66887846      14.33915302      10.63575306       0.00035703      -0.00011634       0.00008066
Ru      11.57917913      10.71352872      13.34413362       0.00023240       0.00017385       0.00066068
Ru      11.98932194       8.75163702      11.88137681       0.00030557       0.00008497      -0.00012202
Ru      11.36491168       8.85443083       9.25251385      -0.00022880      -0.00036747       0.00012144
Ru      10.73659229       9.00618580       6.90500776       0.00005085      -0.00013451      -0.00002736
Ru      10.79789678      10.84098030      10.89323334       0.00025447       0.00033869       0.00007789
Ru      10.16782503       8.68645277      13.51946382       0.00013132      -0.00063592       0.00027664
Ru       9.57850147       8.60185221      11.00959101      -0.00029839       0.00019356      -0.00010707
Ru       8.88846424       8.73081617       8.55605500      -0.00005195      -0.00018095      -0.00046262
Ru      10.35973806      12.92146919      12.34691785       0.00000778       0.00045268       0.00052087
Ru      10.22381990      10.92046000       8.31952535      -0.00039993      -0.00003506      -0.00004594
Ru       9.60159676      11.69659848      14.25044752       0.00018668      -0.00007452      -0.00024754
Ru       9.65154809      12.98447192       9.96972415       0.00026750       0.00003713      -0.00011310
Ru       8.39394369      10.74654258      10.04100558       0.00003760      -0.00024730       0.00009555
Ru       8.78086305      10.44192921      12.47637294       0.00010829      -0.00024039      -0.00078743
Ru       7.97711681      12.65271569      11.72801051      -0.00043036       0.00052163      -0.00011772
22
Lattice="21.70086528717803 0.0 0.0 0.0 21.70086528717803 0.0 0.0 0.0 21.70086528717803" Properties=species:S:1:pos:R:3:forces:R:3 config_type=qcd dft_energy=-159.05306318 gap_energy=-157.78281275492157 relaxed_gap_energy=-158.2905569929851 energy=-158.2905569929851 free_energy=-158.2905569929851 pbc="T T T"