3
Lattice="17.88818015101216 0.0 0.0 0.0 17.88818015101216 0.0 0.0 0.0 17.88818015101216" Properties=species:S:1:pos:R:3:forces:R:3 config_type=qcd dft_energy=-11.21691454 gap_energy=-11.317794778212678 relaxed_gap_energy=-11.366183577494857 energy=-11.366183577494857 free_energy=-11.366183577494857 pbc="T T T"
S        8.57483777       9.07785996       7.32203763      -0.00001974      -0.00001649      -0.00017653
S        9.34223336       8.34468211       8.96375611       0.00000247      -0.00000396      -0.00000080
S        8.91519912       9.40972815      10.54647649       0.00001727       0.00002045       0.00017734
4
Lattice="17.82271956650548 0.0 0.0 0.0 17.82271956650548 0.0 0.0 0.0 17.82271956650548" Properties=species:S:1:pos:R:3:forces:R:3 config_type=qcd dft_energy=-15.49500215 gap_energy=-15.494727551848605 relaxed_gap_energy=-15.970661436550309 energy=-15.970661436550309 free_energy=-15.970661436550309 pbc="T T T"
S        9.77425662       8.58648044       7.61135025      -0.00004388      -0.00004192      -0.00002130
S        7.52554398       8.14075958       8.75046499       0.00011309       0.00003340      -0.00005245
S       10.29717846       9.68194536       9.07226463      -0.00004753      -0.00001189       0.00000550
S        8.04846008       9.23625375      10.21135927      -0.00002167       0.00002041       0.00006825
4
Lattice="18.34761941722858 0.0 0.0 0.0 18.34761941722858 0.0 0.0 0.0 18.34761941722858" Properties=species:S:1:pos:R:3:forces:R:3 config_type=qcd dft_energy=-15.44541572 gap_energy=-15.95682336364343 relaxed_gap_energy=-15.970660774283438 energy=-15.970660774283438 free_energy=-15.970660774283438 pbc="T T T"
S        9.81320351       8.19161868       8.09372111      -0.00010995      -0.00062637      -0.00009294
S        8.30559162       9.31994708       7.84526615       0.00016709       0.00044608      -0.00022126
S        8.53521315      10.15697446      10.25349063      -0.00050474      -0.00013395       0.00030449
S       10.04123056       9.02669862      10.50276093       0.00044760       0.00031424       0.00000971
5
Lattice="17.88373277855818 0.0 0.0 0.0 17.88373277855818 0.0 0.0 0.0 17.88373277855818" Properties=species:S:1:pos:R:3:forces:R:3 config_type=qcd dft_energy=-19.75130729 gap_energy=-19.6078876874165 relaxed_gap_energy=-20.093020924481884 energy=-20.093020924481884 free_energy=-20.093020924481884 pbc="T T T"
S        8.19618141       8.47881793       7.40901259       0.00009616      -0.00029320       0.00008735
S        8.31931906      10.40557536       8.17355741      -0.00002933      -0.00021548      -0.00010032
S        9.10358654       7.19198952       8.76278122       0.00005644       0.00068441       0.00030166
S        9.30273812      10.30951004       9.99987779       0.00025858      -0.00018298       0.00042585
S        9.78750681       8.32343910      10.36410296      -0.00038185       0.00000726      -0.00071454
6
Lattice="18.19041400361349 0.0 0.0 0.0 18.19041400361349 0.0 0.0 0.0 18.19041400361349" Properties=species:S:1:pos:R:3:forces:R:3 config_type=qcd dft_energy=-24.14812543 gap_energy=-23.949828175111787 relaxed_gap_energy=-24.128629373144957 energy=-24.128629373144957 free_energy=-24.128629373144957 pbc="T T T"
S        9.92387143       9.77015315       7.41389317      -0.00003908       0.00015509       0.00036278
S        9.67296781       7.74000740       7.75403512      -0.00038247       0.00005158       0.00043432
S        8.03052791       7.41537660       8.97790777       0.00048226       0.00037783      -0.00000428
S       10.15983701      10.77507896       9.21257284      -0.00041971      -0.00046896      -0.00008652
S        8.51747157      10.45045320      10.43632805       0.00026926      -0.00028466      -0.00025692
S        8.26656629       8.42017270      10.77650506       0.00008973       0.00016912      -0.00044939
7
Lattice="19.62687100621258 0.0 0.0 0.0 19.62687100621258 0.0 0.0 0.0 19.62687100621258" Properties=species:S:1:pos:R:3:forces:R:3 config_type=qcd dft_energy=-28.40075867 gap_energy=-28.019832375832067 relaxed_gap_energy=-28.150067574041742 energy=-28.150067574041742 free_energy=-28.150067574041742 pbc="T T T"
S       10.04413860       9.21965235       7.50897324       0.00051175      -0.00040339      -0.00048467
S        8.35304505      10.16990467       8.24213076      -0.00043034       0.00065655       0.00002151
S       11.67849914       9.63052672       8.71748190       0.00009618      -0.00000882      -0.00003395
S        7.91745651       9.48703576      10.15110594      -0.00009163       0.00003579       0.00087697
S       10.69004402      10.46235313      11.86486287      -0.00030384       0.00038838       0.00039579
S        8.66528550      10.80061696      11.57096645       0.00003670      -0.00039285      -0.00062007
S       11.34557970       8.92395893      10.63852736       0.00018117      -0.00027567      -0.00015558
8
Lattice="19.5073620646467 0.0 0.0 0.0 19.5073620646467 0.0 0.0 0.0 19.5073620646467" Properties=species:S:1:pos:R:3:forces:R:3 config_type=qcd dft_energy=-32.7986861 gap_energy=-32.155829187982036 relaxed_gap_energy=-32.17150578438749 energy=-32.17150578438749 free_energy=-32.17150578438749 pbc="T T T"
S       10.48680125       9.37692089       7.44110396      -0.00025674       0.00011752       0.00053394
S        8.55993563      10.11593976       7.64516974       0.00020842      -0.00021112       0.00005411
S       10.78026781       7.77480042       8.72470781      -0.00000056       0.00034608      -0.00012097
S        8.54402343      11.72734106       8.95035268       0.00019525      -0.00045197       0.00046952
S       11.67439004       8.41787029      10.48181212      -0.00050982       0.00000987      -0.00009420
S        8.02272839      11.10071083      10.85724188       0.00036802       0.00025227      -0.00033230
S       10.23584496       8.75333595      11.93739029       0.00045758      -0.00002504      -0.00008907
S        9.72545676      10.76252907      11.99166976      -0.00046214      -0.00003761      -0.00042103
9
Lattice="19.67856226657605 0.0 0.0 0.0 19.67856226657605 0.0 0.0 0.0 19.67856226657605" Properties=species:S:1:pos:R:3:forces:R:3 config_type=qcd dft_energy=-36.55717532 gap_energy=-36.15697708923585 relaxed_gap_energy=-36.192942786071626 energy=-36.192942786071626 free_energy=-36.192942786071626 pbc="T T T"
S       10.27677890       7.26919236      10.08391192       0.00025216      -0.00016089       0.00040050
S       10.82935992      10.96333312      11.49639476       0.00022112       0.00007591       0.00037048
S        9.43634697      11.57346719       8.45282338       0.00008185       0.00049369      -0.00028813
S        7.50834690      10.96226184       8.91087711      -0.00000721       0.00028819       0.00022972
S       11.75236771       8.51304288       9.32451696      -0.00050965      -0.00057953       0.00000427
S        7.55893741       9.31465281      10.16896254       0.00023627      -0.00087900      -0.00024191
S       12.41106948       9.82218932      10.79150618      -0.00016309       0.00034576      -0.00012039
S       10.33151550      12.42888158      10.11637446       0.00025062       0.00072741      -0.00003272
S        8.44880740       7.70650910       9.20816291      -0.00036208      -0.00031155      -0.00032182
9
Lattice="20.19660190723481 0.0 0.0 0.0 20.19660190723481 0.0 0.0 0.0 20.19660190723481" Properties=species:S:1:pos:R:3:forces:R:3 config_type=qcd dft_energy=-36.55528302 gap_energy=-36.11005810449956 relaxed_gap_energy=-36.19294369711179 energy=-36.19294369711179 free_energy=-36.19294369711179 pbc="T T T"
S        9.52431692       7.96666096       8.81107310      -0.00006897      -0.00036915       0.00011753
S        7.98142025      10.99735966       8.90599544      -0.00009260       0.00001654      -0.00009797
S        7.70940292       8.94530697       9.03144815      -0.00042244       0.00060906      -0.00033010
S       11.86913507      11.76838503      10.00275976      -0.00035054       0.00038291      -0.00018235
S       10.24458997      12.93695401      10.54674776       0.00052449      -0.00033899       0.00008954
S       12.31783522       8.46626052      10.68761285      -0.00043254      -0.00042693       0.00036238
S       10.40540719       7.66454689      10.66384322       0.00081812      -0.00040569      -0.00014021
S        8.54953587      11.75955032      10.74900019       0.00008348      -0.00022771       0.00018132
S       12.28306515      10.37968423      11.48622811      -0.00005899       0.00075995      -0.00000016
10
Lattice="20.19490466698096 0.0 0.0 0.0 20.19490466698096 0.0 0.0 0.0 20.19490466698096" Properties=species:S:1:pos:R:3:forces:R:3 config_type=qcd dft_energy=-40.75007332 gap_energy=-40.18795858834061 relaxed_gap_energy=-40.21438228542944 energy=-40.21438228542944 free_energy=-40.21438228542944 pbc="T T T"
S        9.72136924       9.11814784       7.32372666       0.00007927      -0.00033527       0.00005586
S        9.05599421      11.06318908       7.59655107       0.00030054       0.00031497      -0.00050841
S       11.71711407       8.96035342       7.86463778       0.00002000      -0.00004913      -0.00008658
S        7.54157659      11.11126916       9.01240205      -0.00046405      -0.00047258      -0.00004299
S       11.89857619       7.89369917       9.63376568      -0.00003530      -0.00007751      -0.00034074
S        8.11203878      12.27186497      10.63345697      -0.00010134       0.00075155       0.00034343
S       12.65669010       9.11179964      11.13103846       0.00010527       0.00009890       0.00008035
S        8.47541602      11.06987878      12.28380604      -0.00015774      -0.00007162       0.00000034
S       10.48494504      11.13724131      12.79140741       0.00013213       0.00014262       0.00013027
S       11.31080309       9.23707996      12.70373123       0.00012122      -0.00030194       0.00036846
11
Lattice="20.39741146409512 0.0 0.0 0.0 20.39741146409512 0.0 0.0 0.0 20.39741146409512" Properties=species:S:1:pos:R:3:forces:R:3 config_type=qcd dft_energy=-44.7821112 gap_energy=-44.198294362652156 relaxed_gap_energy=-44.23582050120465 energy=-44.23582050120465 free_energy=-44.23582050120465 pbc="T T T"
S       11.16127015      10.28284602       7.44361964      -0.00045758      -0.00010096      -0.00040298
S       11.00878294      12.16645664       8.29748460       0.00023009       0.00040334       0.00036554
S       12.63709232       9.18077538       8.39636355       0.00032432      -0.00017170       0.00039321
S        9.01762256      12.65076838       8.61572221      -0.00016746      -0.00002628      -0.00039765
S       11.78684158       7.87866641       9.76826169      -0.00011825      -0.00012813      -0.00009556
S        8.55125442      12.48194143      10.62924103       0.00001112       0.00005473       0.00016408
S        8.09565732       9.14850387      11.13475022      -0.00039679      -0.00043752      -0.00060558
S        7.14957171      10.98098520      10.91737497      -0.00011251       0.00042466      -0.00014515
S       11.14979351       9.88838225      12.43860592       0.00034975       0.00052289      -0.00000260
S       12.36821816       8.38489257      11.69340480       0.00028017      -0.00017825      -0.00015599
S        9.25965840       9.14154491      12.85093443       0.00005715      -0.00036276       0.00088269
12
Lattice="19.62203452293338 0.0 0.0 0.0 19.62203452293338 0.0 0.0 0.0 19.62203452293338" Properties=species:S:1:pos:R:3:forces:R:3 config_type=qcd dft_energy=-49.03411669 gap_energy=-48.236558513025635 relaxed_gap_energy=-48.25725873078667 energy=-48.25725873078667 free_energy=-48.25725873078667 pbc="T T T"
S        9.65980547       8.45755471       6.73157303      -0.00021171      -0.00004207      -0.00069150
S        9.42880168      11.83436827       7.07752187      -0.00008224      -0.00014544       0.00010666
S        8.47020265      10.02249172       7.39195432      -0.00016104       0.00035609       0.00018048
S       10.97753421       7.87873439       8.22452363       0.00059432       0.00008391       0.00025466
S       10.65468271      12.28612285       8.68791501       0.00016189      -0.00008400      -0.00003791
S       10.10821763       6.42929929       9.42610224      -0.00002805      -0.00030396      -0.00011262
S        9.55421679      13.18896468      10.19608022       0.00014468       0.00033402      -0.00022249
S        9.00614417       7.31965468      10.94043422      -0.00037230      -0.00016383       0.00013514
S        8.62312467      11.75053698      11.36400190      -0.00039835      -0.00037721      -0.00006518
S       11.13308099       9.63061436      12.24826243       0.00037024      -0.00033800      -0.00012084
S       10.23587497       7.78446308      12.54414801       0.00008084       0.00027839       0.00008290
S        9.88052120      11.14940212      12.89969026      -0.00009828       0.00040209       0.00049069
13
Lattice="21.73348803953022 0.0 0.0 0.0 21.73348803953022 0.0 0.0 0.0 21.73348803953022" Properties=species:S:1:pos:R:3:forces:R:3 config_type=qcd dft_energy=-52.96115605 gap_energy=-52.20084016564528 relaxed_gap_energy=-52.27869673992149 energy=-52.27869673992149 free_energy=-52.27869673992149 pbc="T T T"
S       11.94714343       9.24940572       8.74674571       0.00042127      -0.00019189       0.00012727
S       10.63513310       7.70045266       9.17069755      -0.00006989      -0.00026643      -0.00031634
S       13.76734631       8.92447193       9.68589332      -0.00012497      -0.00004175      -0.00043687
S        7.64447619       9.03238405      10.09637567       0.00020809      -0.00029381       0.00032263
S        7.83210688      11.08965573       9.91580883       0.00016100       0.00029165       0.00012999
S       11.63432314      13.67988897      11.11830802      -0.00072349       0.00031653       0.00021257
S        9.42197443       8.20683151      10.77445008      -0.00063411       0.00025358      -0.00001054
S       14.54293131      11.91534045      11.10991495      -0.00006003      -0.00020484       0.00065667
S       13.85786298       9.98998478      11.46256912       0.00038330       0.00045217       0.00006421
S        7.40026561      12.01065537      11.72296367      -0.00000625       0.00011096      -0.00000944
S       13.38948760      13.28872360      12.15104051       0.00004125      -0.00014787      -0.00035619
S       10.07284952      13.98740114      12.44802343       0.00047786       0.00018521      -0.00030792
S        9.12177177      12.19247635      12.86488139      -0.00007402      -0.00046351      -0.00007603
13
Lattice="21.42366349701335 0.0 0.0 0.0 21.42366349701335 0.0 0.0 0.0 21.42366349701335" Properties=species:S:1:pos:R:3:forces:R:3 config_type=qcd dft_energy=-52.93960796 gap_energy=-52.206530175961866 relaxed_gap_energy=-52.2786967853146 energy=-52.2786967853146 free_energy=-52.2786967853146 pbc="T T T"
S        9.09218060       8.30033031       9.43383336      -0.00002994      -0.00031275       0.00026177
S        8.55966865       8.05811758      11.42333964       0.00003530       0.00058651       0.00018759
S       12.37842508      11.05028377       8.25844659       0.00024833       0.00019048      -0.00007983
S       11.83174876       9.15861574       7.60810486      -0.00000961      -0.00047327       0.00033195
S       10.40282231      13.94357420      10.98635977       0.00048085      -0.00013948       0.00005211
S       12.29821546      13.41983429      11.64504346      -0.00027443       0.00026524       0.00007591
S       12.17858172      12.44421958      13.47101564      -0.00011190      -0.00022986       0.00039563
S        8.72650055       9.86086071      12.43481790      -0.00041046      -0.00012368      -0.00031781
S       10.81060994      12.38119336       7.99176027      -0.00005410       0.00014129      -0.00020982
S       12.00214903      10.39844721      13.18103125      -0.00000355      -0.00016212      -0.00020084
S        9.65839179      12.48617439       9.71275306      -0.00049423       0.00001163      -0.00010192
S       10.18009192       9.72530989      13.90747989       0.00045451       0.00013160       0.00022490
S       11.13442691       8.02685171       9.19982704       0.00016922       0.00011440      -0.00061965
13
Lattice="21.44555269756795 0.0 0.0 0.0 21.44555269756795 0.0 0.0 0.0 21.44555269756795" Properties=species:S:1:pos:R:3:forces:R:3 config_type=qcd dft_energy=-52.93842729 gap_energy=-52.204568076369874 relaxed_gap_energy=-52.27869698870604 energy=-52.27869698870604 free_energy=-52.27869698870604 pbc="T T T"
S        9.04101363      10.23392346       8.03830281      -0.00030850      -0.00004858      -0.00032489
S       12.09972677      11.46900931       7.20514058       0.00010808      -0.00005336       0.00002734
S       11.07255100       9.82777580       7.94802045       0.00024627       0.00018250       0.00014150
S       11.93672146      13.06960946       8.51353111      -0.00001181      -0.00011301      -0.00001940
S       13.13902113      12.76310748      10.17516470      -0.00021858       0.00012298       0.00002030
S        8.47824480      10.64755015       9.99092799       0.00018727       0.00014525       0.00018657
S        7.88684566       8.90714058      10.95087187      -0.00001740      -0.00032995      -0.00000481
S       12.26904956      13.61079951      11.85595904       0.00012153      -0.00032187       0.00006084
S        9.54077574       7.74261917      11.40807215      -0.00025205       0.00027792       0.00021024
S       10.68357404      12.44421879      12.50849904      -0.00013834      -0.00001650      -0.00024929
S       11.80914047       9.35074578      13.36856360       0.00006804      -0.00011512      -0.00014085
S       10.15395057       8.10145500      13.35631638       0.00009990      -0.00006995      -0.00027382
S       11.28547770      11.22813805      14.07672280       0.00011558       0.00033971       0.00036627
13
Lattice="20.77915527706154 0.0 0.0 0.0 20.77915527706154 0.0 0.0 0.0 20.77915527706154" Properties=species:S:1:pos:R:3:forces:R:3 config_type=qcd dft_energy=-52.93378301 gap_energy=-52.19242988279047 relaxed_gap_energy=-52.27869697045248 energy=-52.27869697045248 free_energy=-52.27869697045248 pbc="T T T"
S       13.16875813       8.75152920      10.18485374       0.00020784      -0.00007123       0.00019039
S       12.42878126      10.51808098       9.38965914       0.00006046       0.00006571      -0.00003204
S       12.21510083      10.34512507       7.33424800      -0.00024980       0.00003754       0.00004299
S       11.98483625       8.86954167      13.37238844       0.00004649      -0.00036992      -0.00053805
S       11.80863218       7.94320114      11.52530983      -0.00013104       0.00032145       0.00060775
S       11.38089498      10.84911825      13.24254207       0.00033254       0.00000853      -0.00011718
S        9.39381970      11.03125241      13.80701396      -0.00063627      -0.00010020      -0.00049114
S       10.49039524       9.28737560       6.87908421       0.00010123       0.00003438      -0.00030951
S        8.96401585      12.82511578       9.57998747       0.00003495      -0.00003300      -0.00024129
S        8.15477237      10.76661320      12.16522417       0.00030639       0.00032801       0.00035021
S        7.76765783      12.59051436      11.25750236      -0.00015192      -0.00015169       0.00032847
S        9.01650239       9.67981169       8.28404770      -0.00015298      -0.00002942       0.00011246
S        8.29034229      11.60722995       8.04264821       0.00023211      -0.00004017       0.00009692
13
Lattice="20.7612434809674 0.0 0.0 0.0 20.7612434809674 0.0 0.0 0.0 20.7612434809674" Properties=species:S:1:pos:R:3:forces:R:3 config_type=qcd dft_energy=-52.92806017 gap_energy=-52.21422275659524 relaxed_gap_energy=-52.27869696042894 energy=-52.27869696042894 free_energy=-52.27869696042894 pbc="T T T"
S       13.21520632      11.03001936      11.70864087       0.00005398      -0.00015527      -0.00036871
S       12.04086866       9.64472108       7.74182610       0.00008533       0.00035866      -0.00056652
S       11.58181942      11.39959404       8.74698772       0.00012598      -0.00005684       0.00036707
S        7.34192306       8.95369537       9.36452247      -0.00021813      -0.00005222      -0.00032969
S        7.91589801      10.94197322       9.49779626       0.00014094       0.00008091       0.00014571
S       10.11402973       7.05709960       8.82217877      -0.00005994       0.00035929       0.00019027
S       13.20070968      12.01849931       9.88561685      -0.00016208      -0.00015229      -0.00006592
S       11.93409971       8.02783515       9.03580711       0.00003824      -0.00034722       0.00036457
S        8.76844321       7.73461646      10.24725843       0.00017751      -0.00028023       0.00008770
S        7.40954407      11.71153531      11.35570718      -0.00040015      -0.00017594      -0.00000001
S       12.19789605      12.14004381      13.13448104      -0.00020442       0.00018833       0.00023264
S        9.00322396      12.77389180      12.15068575       0.00018816       0.00046909      -0.00014178
S       10.22442076      11.51455812      13.25657407       0.00023460      -0.00023625       0.00008468
13
Lattice="21.34564656522194 0.0 0.0 0.0 21.34564656522194 0.0 0.0 0.0 21.34564656522194" Properties=species:S:1:pos:R:3:forces:R:3 config_type=qcd dft_energy=-52.91771868 gap_energy=-52.23349890642903 relaxed_gap_energy=-52.27869673807863 energy=-52.27869673807863 free_energy=-52.27869673807863 pbc="T T T"
S       10.68312327      11.62003292       7.01990672       0.00008505      -0.00019856       0.00008975
S       10.44554143       9.59968659       7.42306674       0.00019894       0.00053440      -0.00035513
S        8.56241155       9.24333760       8.21492909      -0.00065604      -0.00001662      -0.00016615
S       11.83454387      12.51480537       8.49427153       0.00013245       0.00040545       0.00067459
S       10.66930793      13.79433079       9.63693119      -0.00008481      -0.00034757      -0.00005240
S        8.69831210       7.96213460       9.83981488      -0.00007277      -0.00042246       0.00031443
S        9.99980112      12.82387521      11.34300381      -0.00009068      -0.00000425      -0.00090910
S        8.84722509       9.04899827      11.59973421      -0.00022913       0.00009339      -0.00030574
S       12.07816395       8.67592217      12.59828648      -0.00025423      -0.00030179       0.00004041
S       12.93744009      11.95992448      12.82586250      -0.00018836       0.00016823       0.00024343
S       10.11663668       8.08979558      12.92957576       0.00059266       0.00002502       0.00040707
S       11.27895445      13.20050540      12.93108518       0.00053873      -0.00009400       0.00014538
S       12.59524115      10.21335371      13.89023461       0.00002819       0.00015876      -0.00012655
13
Lattice="20.31098137217013 0.0 0.0 0.0 20.31098137217013 0.0 0.0 0.0 20.31098137217013" Properties=species:S:1:pos:R:3:forces:R:3 config_type=qcd dft_energy=-52.91657858 gap_energy=-52.18988192940578 relaxed_gap_energy=-52.27869679853797 energy=-52.27869679853797 free_energy=-52.27869679853797 pbc="T T T"
S       12.30890685       9.10116746       7.37771396      -0.00008960       0.00022782      -0.00054697
S       12.91356916       8.12858333       9.10651689      -0.00031282      -0.00041847      -0.00004265
S       10.32018784       8.67478568       6.97292880       0.00007811      -0.00008701       0.00004256
S       13.63434387       9.49923893      10.48566636       0.00067398       0.00023407       0.00034148
S        9.09403825       9.55629505       8.39407434      -0.00008827       0.00035413       0.00001401
S       11.32064216       9.75813707      12.96650889      -0.00023029      -0.00020238       0.00076539
S        9.52367784       8.80801162      12.55567754       0.00035751       0.00000759       0.00014345
S       12.07690224      10.63713838      11.24733113      -0.00026159       0.00007976      -0.00042325
S        8.83482172      11.56935436       7.96836400      -0.00010630      -0.00059102      -0.00022466
S        9.29866687      12.71938677       9.63042180       0.00043159       0.00001787       0.00013050
S        7.93125747      10.04523011      13.03938857       0.00035743      -0.00029437       0.00000542
S        7.05568548      10.79387934      11.31511801      -0.00035287       0.00034677      -0.00052546
S        7.70867918      12.73017084      10.96166861      -0.00045690       0.00032524       0.00032018
13
Lattice="19.98578599346634 0.0 0.0 0.0 19.98578599346634 0.0 0.0 0.0 19.98578599346634" Properties=species:S:1:pos:R:3:forces:R:3 config_type=qcd dft_energy=-52.91565416 gap_energy=-52.21228592695156 relaxed_gap_energy=-52.27869698866193 energy=-52.27869698866193 free_energy=-52.27869698866193 pbc="T T T"
S       10.71688118       7.68021419      11.11008209       0.00006289       0.00017464       0.00018537
S       11.80012338      10.16744201       9.05677338      -0.00019165      -0.00014732       0.00018048
S       10.26106082       9.53052166      10.29225791       0.00031644       0.00000983      -0.00044983
S       10.25235711       6.16879988       9.76828280       0.00045734       0.00007636      -0.00026022
S       11.57960645       9.35757584       7.16053232      -0.00051220       0.00005535       0.00024018
S        8.27170215       5.59619853       9.99046359      -0.00021310      -0.00036489       0.00024183
S        9.60918637       8.79205720       6.84695036       0.00016448       0.00004461       0.00002841
S        7.08448883       6.56244918       8.59142506      -0.00010313       0.00018316      -0.00006967
S        8.51234417      10.39103185       6.11172467       0.00016236      -0.00018754      -0.00021685
S        7.81883094      11.56427349       7.67475032       0.00037639       0.00031772       0.00008511
S        5.61027090       7.66778105       9.54296221      -0.00029255      -0.00027782       0.00002086
S        6.31053557       9.56973552       9.98171965       0.00008200      -0.00001876       0.00011232
S        6.00520303      10.83618212       8.36821754      -0.00030926       0.00013466      -0.00009798
14
Lattice="18.5 0.0 0.0 0.0 18.5 0.0 0.0 0.0 18.5" Properties=species:S:1:pos:R:3:forces:R:3 config_type=qcd dft_energy=-57.08366705 gap_energy=-56.25865439998171 relaxed_gap_energy=-56.30013506596043 energy=-56.30013506596043 free_energy=-56.30013506596043 pbc="T T T"
S        8.74002698       7.44029240      11.35266555       0.00024429      -0.00004391      -0.00014949
S        7.11779224      10.40398742       7.54897281       0.00007520       0.00012072      -0.00024049
S        7.06903324       8.54995139       6.62126544      -0.00039927      -0.00003462      -0.00027246
S       11.47850919      10.82128525      10.95113876       0.00048018       0.00007014       0.00045898
S       10.31426550      11.04703004       9.25000090      -0.00081411       0.00007061      -0.00000048
S       11.47850908      10.82128407       7.54886305       0.00048000       0.00006940      -0.00045855
S        7.11779430      10.40398887      10.95102097       0.00007565       0.00012133       0.00024081
S       10.36860997       8.00564068      12.50533132      -0.00002350       0.00009857      -0.00036871
S       11.85301040       8.81212492       7.19743476      -0.00020365      -0.00010566      -0.00026758
S        7.06903326       8.54995488      11.87873228      -0.00039913      -0.00003537       0.00027264
S        8.74002712       7.44029107       7.14733620       0.00024400      -0.00004426       0.00015005
S        5.93176739      10.38640418       9.24999768       0.00046702      -0.00027911      -0.00000059
S       11.85301022       8.81212639      11.30256874      -0.00020358      -0.00010650       0.00026780
S       10.36861113       8.00563844       5.99467152      -0.00002311       0.00009866       0.00036807
15
Lattice="21.34779828903772 0.0 0.0 0.0 21.34779828903772 0.0 0.0 0.0 21.34779828903772" Properties=species:S:1:pos:R:3:forces:R:3 config_type=qcd dft_energy=-61.14356419 gap_energy=-60.24995964473321 relaxed_gap_energy=-60.32157322229129 energy=-60.32157322229129 free_energy=-60.32157322229129 pbc="T T T"
S       10.49572170       9.29632125       7.50698048       0.00000963       0.00042107      -0.00014008
S       12.08668043      10.50922187       8.05308044      -0.00020267       0.00031915       0.00008464
S       11.63345401      12.49812023       7.67976694      -0.00004693      -0.00014640       0.00001063
S        9.59535251       8.49199216       9.19304200       0.00028649      -0.00031230      -0.00007141
S        9.02346477      13.53075237       9.60259801       0.00006977       0.00017506       0.00015637
S        8.29757585      11.75062693      10.38031808       0.00012715      -0.00047619      -0.00046253
S       11.08921873      13.45227768       9.43872645       0.00008449      -0.00027256      -0.00012166
S       10.73130742       6.92265769       9.93276920      -0.00006647       0.00020283       0.00063005
S       12.65428876      10.61542057      11.54668353      -0.00037187       0.00009226      -0.00042806
S        7.68392158      12.02225179      12.34238423       0.00042286       0.00025712       0.00080501
S       11.51685157       7.41771710      11.78710230      -0.00034163       0.00009825      -0.00035080
S       12.39763919      11.30088233      13.48692179      -0.00026476       0.00014088       0.00026051
S       13.19555618       8.61356620      11.55876883       0.00058157      -0.00029722       0.00011327
S        9.27617421      12.65464147      13.51098575       0.00032422      -0.00046787      -0.00025137
S       10.43128026      11.03203753      14.08835915      -0.00061185       0.00026591      -0.00023459
15