3
Lattice="15.58918573068139 0.0 0.0 0.0 15.58918573068139 0.0 0.0 0.0 15.58918573068139" Properties=species:S:1:pos:R:3:forces:R:3 config_type=qcd dft_energy=-9.91167457 gap_energy=-10.072475249549251 relaxed_gap_energy=-10.179156152852324 energy=-10.179156152852324 free_energy=-10.179156152852324 pbc="T T T"
Sb       7.59660309       8.86196820       8.94028848      -0.00005395       0.00005614       0.00021369
Sb       8.25721884       8.25574618       6.35776897      -0.00000160      -0.00020208      -0.00007919
Sb       7.52995667       6.26606422       8.08572114       0.00005555       0.00014594      -0.00013450
4
Lattice="16.89723117468369 0.0 0.0 0.0 16.89723117468369 0.0 0.0 0.0 16.89723117468369" Properties=species:S:1:pos:R:3:forces:R:3 config_type=qcd dft_energy=-15.33796853 gap_energy=-15.094513927308064 relaxed_gap_energy=-15.098697424780077 energy=-15.098697424780077 free_energy=-15.098697424780077 pbc="T T T"
Sb      10.12682832       7.98694249       8.22958426      -0.00037976       0.00010387       0.00009277
Sb       8.31403563       9.52871043       9.82439561       0.00011021      -0.00016690      -0.00013201
Sb       7.48003020       7.01416241       8.73439250       0.00017495       0.00010142       0.00000650
Sb       7.87356818       9.26464702       7.00608997       0.00009460      -0.00003839       0.00003275
5
Lattice="17.65869077275068 0.0 0.0 0.0 17.65869077275068 0.0 0.0 0.0 17.65869077275068" Properties=species:S:1:pos:R:3:forces:R:3 config_type=qcd dft_energy=-18.36590092 gap_energy=-18.65989475860942 relaxed_gap_energy=-18.665729834035112 energy=-18.665729834035112 free_energy=-18.665729834035112 pbc="T T T"
Sb       8.64863761       9.11544288      10.73816427      -0.00013784       0.00046738       0.00062004
Sb       6.57034158       9.48352925       8.79802852       0.00004235      -0.00008788      -0.00032628
Sb       8.57260077       8.66982049       6.91439990       0.00026925      -0.00011131       0.00076677
Sb      10.57291477       9.79644087       8.68195683      -0.00018152      -0.00016553      -0.00021430
Sb       9.78223221       7.08149343       9.01417741       0.00000776      -0.00010266      -0.00084623
6
Lattice="16.67265325854617 0.0 0.0 0.0 16.67265325854617 0.0 0.0 0.0 16.67265325854617" Properties=species:S:1:pos:R:3:forces:R:3 config_type=qcd dft_energy=-22.63482619 gap_energy=-23.216154903628865 relaxed_gap_energy=-23.21863167451828 energy=-23.21863167451828 free_energy=-23.21863167451828 pbc="T T T"
Sb      10.19825907       7.24306404       7.84382217      -0.00051870       0.00015611      -0.00023807
Sb       7.64358306       7.28202721       6.51604864       0.00015486      -0.00020584       0.00056840
Sb       9.75296541       9.97981951       8.78001830       0.00048021      -0.00024995       0.00008597
Sb       7.19766417      10.01818012       7.45357939      -0.00004474       0.00031973      -0.00051576
Sb       7.39056419       9.11566322      10.18096592      -0.00052442      -0.00021995       0.00034354
Sb       7.83492388       6.37920568       9.24352537       0.00045279       0.00019991      -0.00024408
7
Lattice="17.42293876083215 0.0 0.0 0.0 17.42293876083215 0.0 0.0 0.0 17.42293876083215" Properties=species:S:1:pos:R:3:forces:R:3 config_type=qcd dft_energy=-26.41545318 gap_energy=-26.575090543041583 relaxed_gap_energy=-26.80549972920697 energy=-26.80549972920697 free_energy=-26.80549972920697 pbc="T T T"
Sb       9.74192311      10.93104844      12.74697286      -0.00014237       0.00033647       0.00001394
Sb      10.92509886      10.69352581       7.99087853      -0.00025631      -0.00015525       0.00031208
Sb       9.25149389      12.05271255      10.00949404       0.00034217      -0.00056673       0.00000688
Sb      10.37767655       8.33524688      11.71477077       0.00017678       0.00001910      -0.00019621
Sb      12.17411656      12.23698358      10.02025971      -0.00039072      -0.00024861       0.00011165
Sb       8.92802447       9.21463114       9.36403847      -0.00021400       0.00046653      -0.00049681
Sb      12.46360439      10.27735831      12.13624280       0.00048443       0.00014849       0.00024847
8
Lattice="17.70389427083699 0.0 0.0 0.0 17.70389427083699 0.0 0.0 0.0 17.70389427083699" Properties=species:S:1:pos:R:3:forces:R:3 config_type=qcd dft_energy=-30.83803069 gap_energy=-31.045365810786492 relaxed_gap_energy=-31.06621018585905 energy=-31.06621018585905 free_energy=-31.06621018585905 pbc="T T T"
Sb       9.85854633      11.16052847       7.82103355       0.00024427      -0.00001088      -0.00004967
Sb       8.71864076      10.63779356      10.43504306       0.00004688      -0.00015181       0.00004767
Sb      10.25480171       8.57246805       6.66559436       0.00007229      -0.00027611       0.00013399
Sb       7.64550825       9.74465434       6.58205647      -0.00071850       0.00021710      -0.00012656
Sb       6.51822046       9.23082656       9.20336980       0.00000933       0.00016449       0.00017252
Sb       9.88281786       8.11375798      11.25970687      -0.00037695      -0.00010418      -0.00026763
Sb      10.26849659       6.65695045       8.82675597       0.00021152       0.00000962       0.00057080
Sb       7.66854513       6.69859766      10.02201700       0.00051118       0.00015177      -0.00048113
9
Lattice="18.82536189758111 0.0 0.0 0.0 18.82536189758111 0.0 0.0 0.0 18.82536189758111" Properties=species:S:1:pos:R:3:forces:R:3 config_type=qcd dft_energy=-34.44739398 gap_energy=-34.66848752987356 relaxed_gap_energy=-34.7466281545512 energy=-34.7466281545512 free_energy=-34.7466281545512 pbc="T T T"
Sb       6.93832227       8.12008641      10.95910171       0.00079685      -0.00018690      -0.00014173
Sb       8.51583494      11.42159235       9.84013908      -0.00045741       0.00028048      -0.00045847
Sb      10.74259014      11.75130267       8.02782858       0.00045912       0.00064981       0.00057160
Sb      10.38179770       7.39058515       9.45303395      -0.00008703       0.00065777       0.00010981
Sb      11.94843686       9.15193793       7.78080914      -0.00024846      -0.00056759       0.00039690
Sb      12.24424333      10.64921762      10.21117320      -0.00014022      -0.00071139      -0.00041504
Sb       7.71164722       7.13408786       8.37728479       0.00002291      -0.00053766      -0.00026543
Sb       9.72308041       9.36085221      11.43907363      -0.00059794       0.00039981      -0.00064276
Sb       6.50817569       9.73446633       8.62568447       0.00025218       0.00001567       0.00084511
10
Lattice="19.40039565005785 0.0 0.0 0.0 19.40039565005785 0.0 0.0 0.0 19.40039565005785" Properties=species:S:1:pos:R:3:forces:R:3 config_type=qcd dft_energy=-38.82638302 gap_energy=-38.779143857599806 relaxed_gap_energy=-38.87766573995121 energy=-38.87766573995121 free_energy=-38.87766573995121 pbc="T T T"
Sb      11.94327839       9.72116206       8.62759712      -0.00007637       0.00003990       0.00043138
Sb       9.62473037      10.57340499       7.19416131      -0.00033490       0.00014669      -0.00007857
Sb      11.81164565      11.87864530      10.53749762      -0.00013913       0.00004514      -0.00003129
Sb       9.73565816      12.99027618       8.82384971      -0.00008717      -0.00062508       0.00035737
Sb      11.45888100       7.20467947       9.94510413      -0.00011869       0.00002919      -0.00024794
Sb       8.82687623       6.45975132       9.12484522       0.00043289       0.00063854       0.00023875
Sb       9.10528401      12.12678571      11.47190842       0.00047331      -0.00027032      -0.00063170
Sb       9.30283494       7.42013046      11.83286506      -0.00016212      -0.00017946       0.00018600
Sb       7.54417119       8.95926159       8.33970892       0.00001473       0.00000644      -0.00033641
Sb       7.64861832       9.66788116      11.10444073      -0.00000255       0.00016897       0.00011243
10
Lattice="20.51390172564698 0.0 0.0 0.0 20.51390172564698 0.0 0.0 0.0 20.51390172564698" Properties=species:S:1:pos:R:3:forces:R:3 config_type=qcd dft_energy=-38.78750425 gap_energy=-38.601982235733644 relaxed_gap_energy=-38.789953660419755 energy=-38.789953660419755 free_energy=-38.789953660419755 pbc="T T T"
Sb      13.95162819       9.61830198       8.69802663       0.00051573      -0.00052340      -0.00048635
Sb      12.83551917      12.01744442       9.82079270      -0.00076997       0.00060423       0.00001677
Sb      12.97829677       9.61524646      11.39295826      -0.00013725       0.00017411       0.00047942
Sb      10.11384481      11.86524096       8.83697151       0.00039485      -0.00000945       0.00031883
Sb      11.95484041       7.71154092       9.49798390       0.00024961      -0.00020844      -0.00029864
Sb       9.53903560       9.05368717       8.62606985      -0.00015234       0.00012051      -0.00022421
Sb       8.58824301      12.78844738      11.12134425       0.00033089       0.00020301      -0.00021382
Sb       8.55943954      10.41763880      12.74645655       0.00038860      -0.00013875       0.00063041
Sb       7.70858406       8.48239685      10.79875429      -0.00031354      -0.00055399       0.00018198
Sb       6.34007707      10.99956370      11.03015067      -0.00050658       0.00033217      -0.00040439
11
Lattice="18.64374562412093 0.0 0.0 0.0 18.64374562412093 0.0 0.0 0.0 18.64374562412093" Properties=species:S:1:pos:R:3:forces:R:3 config_type=qcd dft_energy=-42.64636813 gap_energy=-42.61560031946963 relaxed_gap_energy=-42.7636578622921 energy=-42.7636578622921 free_energy=-42.7636578622921 pbc="T T T"
Sb      13.40118219      14.48473120      11.03604216      -0.00001680       0.00011027      -0.00004704
Sb      13.14497209      13.23285374       8.44265670      -0.00006650       0.00004209      -0.00003581
Sb      10.84639937      14.38685546       9.72418086       0.00026138       0.00027684      -0.00014668
Sb      13.56050548      11.86493627      12.29009374      -0.00027897      -0.00009890       0.00004167
Sb      13.30339174      10.60903704       9.68839611      -0.00026692      -0.00010816       0.00012681
Sb       9.42453675      12.15980047      10.93978115      -0.00033912      -0.00018262       0.00012918
Sb      10.50979161       9.91553113       9.50316930       0.00037827       0.00008522      -0.00015605
Sb      10.89350183      11.78995628      13.38595712       0.00040306       0.00009051      -0.00003440
Sb      10.28184239       7.71437888      11.39612969      -0.00028985      -0.00026931      -0.00039985
Sb      10.53722550       8.96120319      13.97886510      -0.00024224       0.00012782       0.00055238
Sb       8.01769279       8.59300935      12.80079742       0.00045769      -0.00007376      -0.00003022
12
Lattice="19.6706996435198 0.0 0.0 0.0 19.6706996435198 0.0 0.0 0.0 19.6706996435198" Properties=species:S:1:pos:R:3:forces:R:3 config_type=qcd dft_energy=-46.96352931 gap_energy=-47.10377440986915 relaxed_gap_energy=-47.23032933228681 energy=-47.23032933228681 free_energy=-47.23032933228681 pbc="T T T"
Sb      11.05572341      13.28937015       9.05730316       0.00006905       0.00023384       0.00004045
Sb      10.36462201      11.80133998       6.69200991       0.00007485      -0.00054568       0.00007833
Sb      11.64658412      11.32642728      11.10292564      -0.00012410      -0.00001840       0.00025885
Sb       8.29057985      12.90814368       8.35336788      -0.00004877      -0.00011351      -0.00018828
Sb      12.34114394       8.93922258       9.66717499       0.00053178       0.00023766      -0.00027276
Sb       9.10302897      10.66789762      12.26019550       0.00000799       0.00033233       0.00021743
Sb      11.37983946       6.76224090      11.31747232      -0.00044210       0.00029877       0.00015216
Sb      10.56793401       9.00306433       7.41021274      -0.00001390       0.00001386      -0.00035408
Sb       7.32941195      10.73087610      10.00342258       0.00003878       0.00055626       0.00004635
Sb       9.30625591       7.86995456      12.97887418      -0.00009554      -0.00072849      -0.00020618
Sb       8.61453748       6.38162210      10.61383673       0.00043391      -0.00019930      -0.00006431
Sb       8.02453676       8.34403860       8.56740225      -0.00043194      -0.00006734       0.00029203
12
Lattice="20.33919821752778 0.0 0.0 0.0 20.33919821752778 0.0 0.0 0.0 20.33919821752778" Properties=species:S:1:pos:R:3:forces:R:3 config_type=qcd dft_energy=-46.93309029 gap_energy=-46.68113365943575 relaxed_gap_energy=-46.80640896119551 energy=-46.80640896119551 free_energy=-46.80640896119551 pbc="T T T"
Sb      13.66856668       9.45321605       7.06640968       0.00001260       0.00013251      -0.00005118
Sb      11.74665830       7.60501598       8.10617165      -0.00047144       0.00011741      -0.00002528
Sb      12.89801964      11.85162327       8.42460097      -0.00012704      -0.00039551      -0.00027420
Sb      12.33374604      11.01044116      11.13630764       0.00019703       0.00038367      -0.00012526
Sb      10.87176482      10.20116210       7.20434707       0.00034900      -0.00024668      -0.00013814
Sb      11.57905316       8.22947844      10.92778764      -0.00005694      -0.00041372      -0.00028911
Sb       9.84473751      12.45116383      10.99111921      -0.00045645       0.00003483       0.00071020
Sb       8.71031009       8.27113014      10.67982258       0.00037620       0.00049612       0.00039456
Sb       8.18556069      10.76901564       9.33766571       0.00080005       0.00005803      -0.00011071
Sb       8.34129223      11.91847229      13.40118086      -0.00023355      -0.00028883       0.00002253
Sb       7.58972566       9.14973301      13.19482257      -0.00013778       0.00048695      -0.00013269
Sb       6.26575449      11.12473738      11.56495371      -0.00025168      -0.00036479       0.00001928
13
Lattice="19.92697957451726 0.0 0.0 0.0 19.92697957451726 0.0 0.0 0.0 19.92697957451726" Properties=species:S:1:pos:R:3:forces:R:3 config_type=qcd dft_energy=-50.70811537 gap_energy=-51.04129651979631 relaxed_gap_energy=-51.15444864174035 energy=-51.15444864174035 free_energy=-51.15444864174035 pbc="T T T"
Sb      10.90600855       9.31092438       6.91150323      -0.00006257       0.00004303       0.00027875
Sb      12.86077879       6.58086560       9.27371538       0.00054926      -0.00037046       0.00005663
Sb      10.76644200       6.42586167       7.28931446      -0.00011539      -0.00067544      -0.00062740
Sb      13.00505117       9.46633800       8.90087011       0.00001341       0.00023687       0.00052607
Sb      10.83890160      12.95585407      10.91554039       0.00038331       0.00014155      -0.00058396
Sb       8.74091198      12.80090991       8.92498452      -0.00012988       0.00017184      -0.00015398
Sb      11.70103914      10.23901132      11.35448616       0.00002944       0.00038107       0.00017332
Sb       8.46952178      10.00045348       8.29168647      -0.00001162       0.00013081       0.00031793
Sb       8.82858127      13.07575035      13.02031566       0.00031642      -0.00045236      -0.00000077
Sb      10.14666921       6.14951281      10.06842882       0.00004980       0.00013642      -0.00019689
Sb       9.17428652       8.94732733      10.87579553      -0.00046631       0.00022676      -0.00019668
Sb       6.73555416      12.92079703      11.03447565      -0.00017105      -0.00009964       0.00014974
Sb       7.35162105      10.65176128      12.66425087      -0.00038482       0.00012955       0.00025724
14
Lattice="20.462785658871 0.0 0.0 0.0 20.462785658871 0.0 0.0 0.0 20.462785658871" Properties=species:S:1:pos:R:3:forces:R:3 config_type=qcd dft_energy=-55.12080525 gap_energy=-54.8292070524187 relaxed_gap_energy=-55.067551318435086 energy=-55.067551318435086 free_energy=-55.067551318435086 pbc="T T T"
Sb       6.92048434      10.20254544      11.59278777      -0.00009834       0.00012842      -0.00010156
Sb       9.54386948      11.29018599      12.11241462       0.00001682      -0.00012386       0.00011751
Sb       7.00912549       8.00539906      13.49620309       0.00004878       0.00046734      -0.00003152
Sb       9.98262391      12.93823765       9.77057733       0.00016709       0.00014070      -0.00028980
Sb      12.60203887      14.05923185      10.29701173       0.00016305      -0.00070681      -0.00020393
Sb      11.06204318       8.91212584      11.51843014       0.00002576      -0.00056600       0.00026947
Sb       9.60783475       6.88125747      13.00601079      -0.00007798       0.00063623      -0.00011407
Sb       7.39909364       6.13552940      11.32576528       0.00001718      -0.00028797       0.00000925
Sb       7.31184486       8.32637657       9.41499357       0.00010247      -0.00020590       0.00074629
Sb      14.29037998      11.84431019       9.58539562       0.00002648       0.00013195       0.00020706
Sb      13.78789143      13.92619665       7.68175857      -0.00033619       0.00041754       0.00069615
Sb      10.13554938       8.45382682       8.82709387      -0.00022967      -0.00046917      -0.00052760
Sb      10.37794456      11.07045172       7.60825032       0.00021517       0.00002160      -0.00048876
Sb      13.20877573      11.19382495       7.00280693      -0.00004062       0.00041593      -0.00028848
15
Lattice="22.49389087497606 0.0 0.0 0.0 22.49389087497606 0.0 0.0 0.0 22.49389087497606" Properties=species:S:1:pos:R:3:forces:R:3 config_type=qcd dft_energy=-58.57138527 gap_energy=-58.481200355381795 relaxed_gap_energy=-58.68056005919514 energy=-58.68056005919514 free_energy=-58.68056005919514 pbc="T T T"
Sb      11.57322411      12.34342802       8.59222398       0.00020409       0.00007211      -0.00021107
Sb      11.56837096       9.57773346       9.42143936       0.00027235       0.00007960      -0.00002321
Sb       9.02415518      15.93532113       9.28021876       0.00021876      -0.00031939      -0.00004083
Sb       8.80264939      13.14961411       8.56450474       0.00010454      -0.00035701       0.00057509
Sb      11.79499112      16.36408633       9.75554046      -0.00044132      -0.00046462      -0.00003227
Sb      12.72575796      13.88009405      10.74281546      -0.00025192       0.00066355      -0.00036871
Sb      13.97945254       9.19285717      10.93943859      -0.00009538      -0.00031157      -0.00007067
Sb      13.34232752       6.45030934      11.67517282      -0.00012168      -0.00028235      -0.00011627
Sb       8.20939233      13.99216206      11.25062020       0.00012245       0.00033704       0.00026578
Sb      10.65792144      13.65084532      12.73920124       0.00017677       0.00049546       0.00030398
Sb       9.64142008       9.23286394      11.52997464       0.00038176       0.00029854      -0.00027209
Sb      12.75053143       7.30068677      14.36902166       0.00004080      -0.00029143       0.00009060
Sb      13.38398444      10.04865910      13.65058568      -0.00036011       0.00012536       0.00026662
Sb      10.60939010       6.67636242      12.54955241       0.00005105      -0.00017626      -0.00003566
Sb      10.64061295      10.90915834      13.64387158      -0.00030216       0.00013097      -0.00033129
15
Lattice="22.30943145183574 0.0 0.0 0.0 22.30943145183574 0.0 0.0 0.0 22.30943145183574" Properties=species:S:1:pos:R:3:forces:R:3 config_type=qcd dft_energy=-58.54326676 gap_energy=-58.457651622098844 relaxed_gap_energy=-58.654450789344516 energy=-58.654450789344516 free_energy=-58.654450789344516 pbc="T T T"
Sb      10.95205346       6.22157631      13.06468046       0.00007063       0.00000530      -0.00027458
Sb      11.16463890       7.80314488      10.64327694      -0.00024737       0.00001395       0.00025014
Sb       8.09348985       6.37728328      12.71890979       0.00003618      -0.00032896      -0.00003602
Sb       8.43579371       8.69349629      10.95513341      -0.00029123       0.00000801      -0.00006924
Sb      12.98094894      11.55357928       8.95727573      -0.00003556      -0.00003631       0.00003665
Sb      12.88027249       9.99306258      11.39880254       0.00030315      -0.00023157       0.00021115
Sb       9.36924582       7.82411628      14.86228539      -0.00001019       0.00035896       0.00013764
Sb       8.76055522      10.23712454      13.37348767       0.00010491      -0.00010709      -0.00024869
Sb      14.74835034      13.71229140       9.73156839      -0.00022672       0.00040730       0.00010520
Sb      11.29655796      11.59650916      13.19758693       0.00017784      -0.00010345      -0.00029215
Sb      10.38558573      12.83053361       8.98282776      -0.00012268      -0.00014573       0.00006771
Sb      13.16774411      15.31234061      11.52678714       0.00020328       0.00012519      -0.00029570
Sb      10.61725611      13.94660532      11.64138684      -0.00010246       0.00034064       0.00016325
Sb      13.41802411      16.07766496       8.75857055      -0.00012462      -0.00038242       0.00013548
Sb      11.05021913      15.14140739       7.50815632       0.00026482       0.00007619       0.00010917
16
Lattice="22.96622609712693 0.0 0.0 0.0 22.96622609712693 0.0 0.0 0.0 22.96622609712693" Properties=species:S:1:pos:R:3:forces:R:3 config_type=qcd dft_energy=-63.17687393 gap_energy=-62.86886908940685 relaxed_gap_energy=-63.02353136241798 energy=-63.02353136241798 free_energy=-63.02353136241798 pbc="T T T"
Sb      11.47452025      13.51391196      12.93947805      -0.00043896      -0.00008001      -0.00006196
Sb       9.83850165      15.94561274      12.61941935       0.00008828      -0.00007970      -0.00012654
Sb      11.61474952       9.52114162      14.29147558       0.00024862      -0.00039887      -0.00018945
Sb      14.93982286       8.20229052      12.57735768      -0.00021663       0.00023411       0.00002021
Sb      13.60596106      10.83106567      12.62922819       0.00007596      -0.00038117      -0.00046708
Sb      12.88423362       6.92165118      14.14093687       0.00006332      -0.00017172       0.00006896
Sb       9.12481739      12.06877102      12.08083144      -0.00019029       0.00037367       0.00030404
Sb      12.92206949      14.46925876      10.60800074      -0.00041973       0.00033690      -0.00002790
Sb      11.23702443      16.79776386      10.24702350      -0.00009502       0.00015633      -0.00003210
Sb      12.98935014       6.49927445      11.30519324      -0.00021728      -0.00029216       0.00010326
Sb      12.99752902      10.34716219       9.84668802       0.00053967      -0.00015386       0.00011607
Sb       8.64183383      15.59637905      10.01767245       0.00013782       0.00014864      -0.00027274
Sb       9.50397276       9.21424668      12.37825107       0.00015569      -0.00006981      -0.00010580
Sb      11.85917198      12.70658602       8.61471162      -0.00020528       0.00005603       0.00007607
Sb       9.06167169      12.79434252       9.32777477       0.00038805       0.00006994       0.00020831
Sb      11.03457906       8.30035053      10.10576620       0.00008579       0.00025169       0.00038666
16
Lattice="21.30656653883309 0.0 0.0 0.0 21.30656653883309 0.0 0.0 0.0 21.30656653883309" Properties=species:S:1:pos:R:3:forces:R:3 config_type=qcd dft_energy=-63.14187438 gap_energy=-62.91144205339899 relaxed_gap_energy=-63.14596323441649 energy=-63.14596323441649 free_energy=-63.14596323441649 pbc="T T T"
Sb      14.10763170      15.23448968      13.38081969      -0.00027035      -0.00032576      -0.00020454
Sb      11.38736704      15.05145916      12.42730069      -0.00001153       0.00018615       0.00014660
Sb      11.53527007      14.29683383       9.65862300       0.00011065      -0.00005550      -0.00025134
Sb      14.07345888      14.40047777      16.13041890      -0.00064254      -0.00033606       0.00022309
Sb       8.64950690      14.08575295       9.34388801      -0.00029694      -0.00048187       0.00027355
Sb      16.96061010      14.59124123      16.44517714       0.00007443       0.00050734      -0.00017897
Sb      17.92393787      13.24162932      14.09234946       0.00013602       0.00000297      -0.00019834
Sb      15.66736607      13.10466012      12.24558217       0.00030829      -0.00017796       0.00015307
Sb      14.27782910      11.50384045      16.09544256       0.00006347      -0.00003940       0.00017356
Sb      11.74168721      11.40034774       9.62344788       0.00003646       0.00020610      -0.00013961
Sb       7.89008504      12.55691889      11.66157752       0.00067345       0.00014152      -0.00044159
Sb      14.42678359      10.74890519      13.32689340      -0.00035781      -0.00006195      -0.00014886
Sb      10.14659588      12.69564802      13.50833811       0.00002385       0.00007442      -0.00007384
Sb       8.85459230      11.20727221       9.30912409      -0.00010730       0.00066216       0.00034222
Sb      17.16377643      11.71270882      16.40974308       0.00042051      -0.00002783       0.00023594
Sb      11.70682613      10.56623316      12.37297876      -0.00016065      -0.00027432       0.00008908
17
Lattice="22.02559140779705 0.0 0.0 0.0 22.02559140779705 0.0 0.0 0.0 22.02559140779705" Properties=species:S:1:pos:R:3:forces:R:3 config_type=qcd dft_energy=-66.56797073 gap_energy=-66.78216566963485 relaxed_gap_energy=-67.15299978911136 energy=-67.15299978911136 free_energy=-67.15299978911136 pbc="T T T"
Sb      14.90171211       8.54480130       8.52097704      -0.00016390      -0.00003637       0.00057512
Sb      12.80917104       6.98157197       7.32989817      -0.00011175       0.00018614      -0.00006629
Sb      11.63185276      11.31438807       7.64354706       0.00008370      -0.00012557      -0.00023948
Sb      13.41487723      10.70847648       9.82746529      -0.00002530      -0.00055786       0.00023311
Sb      13.47384965       6.59207189      10.09543830       0.00021630       0.00032683      -0.00016166
Sb      10.46491130       8.69695333       7.33080812      -0.00004900      -0.00025148      -0.00017256
Sb      11.62631034      12.02519719      12.49409329       0.00044270       0.00015258      -0.00025926
Sb       9.46668599      12.78058424       8.89660827      -0.00001422       0.00017661      -0.00000543
Sb      10.79156489      14.33442224      10.95937248      -0.00040433       0.00012165       0.00043169
Sb      11.97344715       8.73489212      11.41594000       0.00022464       0.00003753      -0.00004859
Sb       8.03944105      10.82711528      10.46085121      -0.00027369       0.00020263      -0.00003689
Sb       9.47473152       8.37053332      10.02087545      -0.00000686       0.00017862       0.00017103
Sb      12.18310809      13.51272250      14.97005884      -0.00043822       0.00014500      -0.00011139
Sb       8.47413451      14.41168008      12.70070931       0.00013556      -0.00007388       0.00017662
Sb       8.86800882      11.58601566      13.33230724       0.00003747      -0.00008828       0.00037786
Sb       9.73838861      12.55834106      16.10776660      -0.00006068      -0.00024929      -0.00057208
Sb       9.88533192      15.23776022      15.11081028       0.00040758      -0.00014487      -0.00029178
17
Lattice="22.19392601948906 0.0 0.0 0.0 22.19392601948906 0.0 0.0 0.0 22.19392601948906" Properties=species:S:1:pos:R:3:forces:R:3 config_type=qcd dft_energy=-66.55400003 gap_energy=-66.62266948425756 relaxed_gap_energy=-66.94784131172966 energy=-66.94784131172966 free_energy=-66.94784131172966 pbc="T T T"
Sb      10.11487232      11.32851085      16.07890352      -0.00000132       0.00012160       0.00020062
Sb       7.36308071      11.21266135      15.27615803       0.00000455      -0.00000709      -0.00022207
Sb      11.48264865      11.70890309      13.48299284       0.00031873       0.00038000      -0.00012255
Sb       8.98679127       8.85146990      15.13959162       0.00020893       0.00001412      -0.00014181
Sb       9.76522647      13.76422585      12.41753007       0.00016749      -0.00026885       0.00009370
Sb      15.64031189       9.56553713       9.68183123      -0.00029995      -0.00045102       0.00072182
Sb      10.34239659       9.20407333      12.53327404      -0.00024181      -0.00044998       0.00020018
Sb      13.95614042      11.44122412      11.19394814      -0.00026912      -0.00018530       0.00020538
Sb       7.29971451      12.26780503      12.56911797       0.00035193      -0.00021964      -0.00000574
Sb      12.82239417       8.95025254      10.24988847       0.00008940       0.00028078       0.00018691
Sb      15.65597172      10.55867874       7.04068806       0.00009903       0.00002117       0.00017722
Sb      10.28761312      13.71942840       9.57124617       0.00018429      -0.00037811      -0.00021643
Sb       8.03886871       9.97219640      10.98008904      -0.00004837      -0.00000932      -0.00007930
Sb      13.14194843      13.38558000       9.21103882      -0.00011709       0.00050792      -0.00021819
Sb       9.15834036      11.23872508       8.63089116       0.00033346       0.00018937       0.00010278
Sb      11.45386090       9.67728580       7.80567897      -0.00028496      -0.00002705      -0.00031367
Sb      13.13819092      11.80181357       6.78550303      -0.00049520       0.00048142      -0.00056886
17
Lattice="22.67527943008969 0.0 0.0 0.0 22.67527943008969 0.0 0.0 0.0 22.67527943008969" Properties=species:S:1:pos:R:3:forces:R:3 config_type=qcd dft_energy=-66.5364386 gap_energy=-66.67484000394958 relaxed_gap_energy=-66.99273483891122 energy=-66.99273483891122 free_energy=-66.99273483891122 pbc="T T T"
Sb      13.24910430       7.07001390      12.08010883      -0.00011518       0.00006356      -0.00064534
Sb      15.43905720       7.61564550      10.31543500       0.00002740      -0.00013430       0.00008211
Sb      12.21831827       9.78267930      12.67175089       0.00004224       0.00013572       0.00019958