3
Lattice="15.69374010384288 0.0 0.0 0.0 15.69374010384288 0.0 0.0 0.0 15.69374010384288" Properties=species:S:1:pos:R:3:forces:R:3 config_type=qcd dft_energy=-10.11864598 gap_energy=-10.197409789510784 relaxed_gap_energy=-10.219592780987037 energy=-10.219592780987037 free_energy=-10.219592780987037 pbc="T T T"
Sc      10.11864737      10.72774985       8.67062971      -0.00060268      -0.00043569      -0.00020708
Sc       9.09054263       9.05255970      10.59537488       0.00031054       0.00047753      -0.00051180
Sc      11.23860914      10.66748960      11.18179455       0.00029214      -0.00004184       0.00071888
4
Lattice="15.639625 0.0 0.0 0.0 15.639625 0.0 0.0 0.0 15.639625" Properties=species:S:1:pos:R:3:forces:R:3 config_type=qcd dft_energy=-15.37766474 gap_energy=-15.44193002199015 relaxed_gap_energy=-15.47916900719311 energy=-15.47916900719311 free_energy=-15.47916900719311 pbc="T T T"
Sc       7.90307324       9.41430958       7.09604961      -0.00019633       0.00064794      -0.00029552
Sc       8.63634278       7.83880952       9.37094112       0.00035691      -0.00004087       0.00078887
Sc       8.59862994       6.65737871       6.76365309       0.00001827      -0.00052349      -0.00033050
Sc       6.14120404       7.36875188       8.04860680      -0.00017885      -0.00008358      -0.00016285
5
Lattice="17.02439792233791 0.0 0.0 0.0 17.02439792233791 0.0 0.0 0.0 17.02439792233791" Properties=species:S:1:pos:R:3:forces:R:3 config_type=qcd dft_energy=-20.41387067 gap_energy=-20.35407429836851 relaxed_gap_energy=-20.415871953502815 energy=-20.415871953502815 free_energy=-20.415871953502815 pbc="T T T"
Sc       9.53813753      11.64207275      12.93133045      -0.00006746       0.00021858       0.00021866
Sc      13.57439649      11.62703069      10.34481057       0.00066287       0.00018391      -0.00012655
Sc      12.45565185      11.67805097      13.04128384      -0.00036505       0.00016123      -0.00047454
Sc      11.09025516      13.05620355      10.90243792       0.00000178      -0.00006121       0.00042603
Sc      11.12321492      10.16978486      10.97070119      -0.00023213      -0.00050251      -0.00004360
6
Lattice="17.41447250897627 0.0 0.0 0.0 17.41447250897627 0.0 0.0 0.0 17.41447250897627" Properties=species:S:1:pos:R:3:forces:R:3 config_type=qcd dft_energy=-25.38682193 gap_energy=-25.44925126051354 relaxed_gap_energy=-25.476676000780508 energy=-25.476676000780508 free_energy=-25.476676000780508 pbc="T T T"
Sc      11.23248544       9.39608334      11.47113489       0.00005921      -0.00026666       0.00001293
Sc      10.03436277       7.95653867       9.20124017       0.00037654      -0.00033620       0.00032195
Sc       8.81530162      10.53597247       8.48148595      -0.00029849       0.00043086       0.00041942
Sc      11.62358384      10.40838835       8.85161400       0.00013208      -0.00002179      -0.00021797
Sc      10.01315789      11.97565703      10.75140755      -0.00006310       0.00015966      -0.00013089
Sc       8.42420311       9.52381053      11.10131423      -0.00020624       0.00003413      -0.00040544
7
Lattice="17.54003890788655 0.0 0.0 0.0 17.54003890788655 0.0 0.0 0.0 17.54003890788655" Properties=species:S:1:pos:R:3:forces:R:3 config_type=qcd dft_energy=-30.69495778 gap_energy=-30.5567056544279 relaxed_gap_energy=-30.618164361693417 energy=-30.618164361693417 free_energy=-30.618164361693417 pbc="T T T"
Sc       8.25738897      10.39761815       7.71149182      -0.00041252       0.00076882       0.00022923
Sc       9.24495843      12.19158812       9.91012030      -0.00015345      -0.00008388      -0.00072354
Sc      10.92620277       9.99330832       8.89505457       0.00041856       0.00015146       0.00071470
Sc       9.29531266       7.62810772       8.23671804      -0.00010530      -0.00070021      -0.00002855
Sc      10.89348198      10.53033621      11.79330418       0.00035768      -0.00006492       0.00023725
Sc       8.51986906       9.38993948      10.46915425       0.00020274      -0.00053391      -0.00022447
Sc      10.92466684       7.70987481      10.75932684      -0.00030770       0.00046263      -0.00020462
8
Lattice="17.82317782353972 0.0 0.0 0.0 17.82317782353972 0.0 0.0 0.0 17.82317782353972" Properties=species:S:1:pos:R:3:forces:R:3 config_type=qcd dft_energy=-35.66833408 gap_energy=-35.48795290182268 relaxed_gap_energy=-35.50731356157259 energy=-35.50731356157259 free_energy=-35.50731356157259 pbc="T T T"
Sc       9.51945323       7.45441014       9.27674026       0.00075396       0.00048177       0.00021286
Sc       9.70091976       8.98869739       6.80238534       0.00006956      -0.00045951      -0.00007578
Sc      11.55041619       9.52984214       9.14912181       0.00009036       0.00010922       0.00027627
Sc       7.33786188       6.93051521       7.49167538      -0.00069342      -0.00000227      -0.00006903
Sc       6.92904014       7.51566129      10.50477417      -0.00015364      -0.00045065      -0.00019255
Sc       9.13590813       9.79745956      10.97136405      -0.00012765      -0.00034105      -0.00012754
Sc       9.64953407      11.49877885       8.50987293      -0.00022498      -0.00001727      -0.00030772
Sc       7.46957789       9.57734673       8.58677736       0.00028580       0.00067977       0.00028350
9
Lattice="19.66307804868298 0.0 0.0 0.0 19.66307804868298 0.0 0.0 0.0 19.66307804868298" Properties=species:S:1:pos:R:3:forces:R:3 config_type=qcd dft_energy=-40.58914775 gap_energy=-40.484250495091246 relaxed_gap_energy=-40.5283031703722 energy=-40.5283031703722 free_energy=-40.5283031703722 pbc="T T T"
Sc      11.49960468      11.89798726       9.24498426       0.00041564       0.00048962       0.00027861
Sc       9.56378303      13.23982287      11.21710717       0.00022788      -0.00058874       0.00017064
Sc      10.79431356       8.53123688      11.83249067       0.00005344       0.00002323      -0.00017447
Sc      12.81894935      13.42425285      11.23800653      -0.00028046      -0.00037792      -0.00033948
Sc       9.17150704      10.37633534      10.17599159      -0.00076605       0.00000064       0.00008295
Sc      11.49425174       8.92790948       8.99831871       0.00032857      -0.00002399       0.00008742
Sc      11.25374393      11.28731167      12.25346413       0.00020821       0.00065335      -0.00019058
Sc      13.43106784      10.25462380      10.77804424       0.00003175      -0.00020523       0.00003127
Sc       8.57468399      10.65060662      12.93452895      -0.00021898       0.00002903       0.00005364
9
Lattice="17.85315927333492 0.0 0.0 0.0 17.85315927333492 0.0 0.0 0.0 17.85315927333492" Properties=species:S:1:pos:R:3:forces:R:3 config_type=qcd dft_energy=-40.56714384 gap_energy=-40.47848321849098 relaxed_gap_energy=-40.52595969116924 energy=-40.52595969116924 free_energy=-40.52595969116924 pbc="T T T"
Sc      11.33427067       7.99232615      10.81011162      -0.00027186      -0.00007934      -0.00024303
Sc      12.78115730      10.68738000      10.67892316       0.00032275      -0.00001435      -0.00007816
Sc      10.16014856      10.55456184      11.93427670       0.00014910       0.00041171      -0.00015758
Sc      10.74343072      12.80765474      10.18838840      -0.00044351      -0.00015014       0.00018517
Sc      10.36697807      10.06540897       8.95846545      -0.00015506      -0.00005032       0.00035026
Sc       7.99863254      11.46243493      10.00785483       0.00037274       0.00011712       0.00010450
Sc       8.35199007       8.50414263      10.58318796       0.00007265      -0.00028707      -0.00030116
Sc       9.68365741       7.17510081       8.36395565       0.00013350      -0.00006088       0.00045067
Sc       7.64553879       9.29517454       7.87424373      -0.00018031       0.00011326      -0.00031068
10
Lattice="19.68239089283446 0.0 0.0 0.0 19.68239089283446 0.0 0.0 0.0 19.68239089283446" Properties=species:S:1:pos:R:3:forces:R:3 config_type=qcd dft_energy=-45.67475774 gap_energy=-45.57050743511384 relaxed_gap_energy=-45.617874457137646 energy=-45.617874457137646 free_energy=-45.617874457137646 pbc="T T T"
Sc       8.15125217      10.89559778       7.37915870      -0.00009542       0.00013602       0.00003167
Sc       9.82924309       7.91850035       7.23841687      -0.00031680       0.00041529      -0.00044063
Sc       8.61461933       9.13393730       9.44118826       0.00058198      -0.00061564      -0.00001298
Sc      12.27623394       7.91346788       8.86394368       0.00072659      -0.00036783       0.00004610
Sc      11.00620685      10.50122386       8.14955751       0.00004720      -0.00016538       0.00022750
Sc      10.00580831       6.93031040      10.44801885      -0.00021381       0.00020014       0.00044243
Sc       9.16581413      11.83363002      10.24214723       0.00040661       0.00024255       0.00005833
Sc      11.16474586       9.61425389      11.03007886      -0.00029991       0.00012580      -0.00051392
Sc       6.44121290      10.90849927      10.10707143      -0.00075848      -0.00001270       0.00006971
Sc       8.41475821       9.42047402      12.17031338      -0.00007795       0.00004175       0.00009177
10
Lattice="20.358548 0.0 0.0 0.0 20.358548 0.0 0.0 0.0 20.358548" Properties=species:S:1:pos:R:3:forces:R:3 config_type=qcd dft_energy=-45.62836518 gap_energy=-45.48416406167564 relaxed_gap_energy=-45.56913461512838 energy=-45.56913461512838 free_energy=-45.56913461512838 pbc="T T T"
Sc      12.07401344      10.66539148      11.41420866       0.00040909       0.00051106      -0.00036704
Sc      11.25674522      12.52250331       9.34303608       0.00037825      -0.00016037      -0.00001506
Sc      10.75208118       9.77596538       8.65468152       0.00064315       0.00001377       0.00004969
Sc       9.27994632      12.20327891      11.74347858      -0.00028053      -0.00009985      -0.00003467
Sc       9.55618590       9.35104038      11.49832806       0.00004713       0.00004798       0.00024611
Sc       6.83262917      10.07726579      11.31188953      -0.00006421      -0.00032702      -0.00011141
Sc       8.34559122      11.18762455       9.19347697      -0.00052692       0.00061835       0.00037741
Sc       8.39248484       8.05795502       9.34463854      -0.00020276      -0.00026403      -0.00033741
Sc      13.52202131      10.18440148       9.03056215      -0.00041294      -0.00037480       0.00007828
Sc      11.78104140       7.76731370      10.25843992       0.00000973       0.00003492       0.00011412
11
Lattice="17.58718609879389 0.0 0.0 0.0 17.58718609879389 0.0 0.0 0.0 17.58718609879389" Properties=species:S:1:pos:R:3:forces:R:3 config_type=qcd dft_energy=-51.08787756 gap_energy=-50.962256123364135 relaxed_gap_energy=-51.242899155731585 energy=-51.242899155731585 free_energy=-51.242899155731585 pbc="T T T"
Sc       9.24851355      12.34761242      10.57673724       0.00031984       0.00004874       0.00001987
Sc      11.74464863      11.03187136       9.49473610      -0.00025890      -0.00005602       0.00002550
Sc      12.02810473      12.02789544      12.02798459      -0.00059896      -0.00031663      -0.00000737
Sc      14.31338024      12.58299077      10.62878241       0.00049223       0.00040785      -0.00010541
Sc      11.58356744      14.26491278      10.51551646       0.00000993      -0.00007019      -0.00030024
Sc      13.30158067       9.60827330      11.91175783      -0.00036589       0.00039521       0.00003087
Sc      14.80718656      11.70820090      13.47892835      -0.00008829      -0.00013500      -0.00007928
Sc       9.99144490      13.29091873      13.34975065       0.00054967      -0.00043096       0.00011938
Sc      10.15244385      10.05800937      12.32954632      -0.00005283      -0.00034874      -0.00020333
Sc      13.07384056      14.18058520      13.35509007       0.00009358       0.00012924       0.00016896
Sc      12.06190963      11.20535048      14.63779074      -0.00010038       0.00037651       0.00033104
11
Lattice="19.08333797274524 0.0 0.0 0.0 19.08333797274524 0.0 0.0 0.0 19.08333797274524" Properties=species:S:1:pos:R:3:forces:R:3 config_type=qcd dft_energy=-51.05351381 gap_energy=-50.90791993295328 relaxed_gap_energy=-51.24289899799838 energy=-51.24289899799838 free_energy=-51.24289899799838 pbc="T T T"
Sc      11.36577913      11.71947125      12.93818491      -0.00015550      -0.00052485      -0.00077161
Sc      13.26716961      11.03261495      10.21122258      -0.00071611       0.00026113       0.00047145
Sc      10.95740743      13.25880639      10.15297959       0.00030440       0.00017649       0.00035492
Sc      12.65024445       9.03816723      12.39613925      -0.00006067       0.00022651      -0.00022834
Sc      11.53663008       8.15318592       9.72979522       0.00019133       0.00015410       0.00014635
Sc      11.07851826      10.73767266       7.88472790      -0.00031496      -0.00043030       0.00003173
Sc       9.63557222       8.83948974      12.45652031      -0.00015571       0.00006700      -0.00014389
Sc       8.51040904       9.18590139       9.47203276      -0.00004188       0.00011730       0.00029000
Sc      10.59240499      10.57945367      10.57329132       0.00077431      -0.00010636       0.00023848
Sc       8.53478009      12.12036719       8.75076162      -0.00017329       0.00018663      -0.00037889
Sc       8.38937791      11.70775226      11.74082091       0.00034808      -0.00012764      -0.00001021
12
Lattice="17.905424 0.0 0.0 0.0 17.905424 0.0 0.0 0.0 17.905424" Properties=species:S:1:pos:R:3:forces:R:3 config_type=qcd dft_energy=-56.51860037 gap_energy=-55.586400183528966 relaxed_gap_energy=-56.41335497049042 energy=-56.41335497049042 free_energy=-56.41335497049042 pbc="T T T"
Sc      11.28120033       9.67588107      10.38900110      -0.00011442      -0.00039884       0.00027352
Sc       6.20711401       8.22796221       7.67665912      -0.00033687      -0.00006435       0.00019987
Sc       6.96673220      11.28006086       8.37924417      -0.00057651       0.00054474       0.00018271
Sc       7.57005701       6.32706374       9.89377892      -0.00041487      -0.00020256       0.00041044
Sc       8.79373248       6.76033477       7.17051629       0.00055449      -0.00015000      -0.00003282
Sc       9.97317309      11.49995540       8.26152260       0.00020835      -0.00018035      -0.00029783
Sc      10.55214463       6.74642247       9.71488271       0.00031604       0.00019158       0.00031930
Sc      11.11149540       8.75924118       7.46003468      -0.00015828      -0.00009995      -0.00028004
Sc       9.17153890       8.20495184      11.96672074       0.00030751      -0.00032222      -0.00037922
Sc       8.79908144      11.26600320      11.03060789      -0.00030353      -0.00030547      -0.00034013
Sc       8.57029598       8.98679567       9.21717781       0.00012499       0.00059240       0.00046863
Sc       8.43597827       9.69787133       6.27239808       0.00039309       0.00039502      -0.00052442
12
Lattice="17.908792 0.0 0.0 0.0 17.908792 0.0 0.0 0.0 17.908792" Properties=species:S:1:pos:R:3:forces:R:3 config_type=qcd dft_energy=-56.51091128 gap_energy=-56.36711267743598 relaxed_gap_energy=-56.413355482149385 energy=-56.413355482149385 free_energy=-56.413355482149385 pbc="T T T"
Sc       9.28326213       9.09497062       8.65552185       0.00070536       0.00060052       0.00004785
Sc      10.07501839       7.63265972      11.19145201       0.00020099       0.00016945      -0.00000247
Sc      11.66544620       9.95743564      10.11024677      -0.00050394      -0.00022622      -0.00006090
Sc      11.45475651       7.14358537       8.55341323      -0.00026816       0.00002273      -0.00008072
Sc       8.62903956       6.14403540       8.89829128       0.00012600      -0.00022316       0.00002872
Sc       8.95625836      10.51342817      11.31590764       0.00013242      -0.00004906      -0.00012251
Sc       6.81865932      10.80497347       9.09990032       0.00008390       0.00017366      -0.00000249
Sc       9.56840487      12.00035076       8.76305184      -0.00036209      -0.00036873       0.00016909
Sc       7.09708426       8.16005908      10.64137729      -0.00002791       0.00002727       0.00009359
Sc       9.22731868       7.44755269       6.24396838      -0.00009587      -0.00003278       0.00012937
Sc       8.06107465      10.44920951       6.37382736       0.00015293      -0.00015917       0.00006172
Sc       6.61642908       8.10449155       7.60579400      -0.00014362       0.00006549      -0.00026125
13
Lattice="17.108867 0.0 0.0 0.0 17.108867 0.0 0.0 0.0 17.108867" Properties=species:S:1:pos:R:3:forces:R:3 config_type=qcd dft_energy=-62.96689583 gap_energy=-62.38814153126855 relaxed_gap_energy=-62.39966574519154 energy=-62.39966574519154 free_energy=-62.39966574519154 pbc="T T T"
Sc       8.55434854       8.55438722       8.55439943       0.00008072       0.00004138       0.00003286
Sc      10.11397541      11.07762179       8.55445945      -0.00015433      -0.00002124      -0.00002489
Sc      10.11396808       6.03122629       8.55444174      -0.00014699       0.00003648       0.00000280
Sc       6.99493316      11.07767191       8.55444197       0.00013286      -0.00006827      -0.00001459
Sc       6.99489717       6.03119736       8.55442493       0.00013825       0.00003911       0.00001206
Sc      11.07761808       8.55445841      10.11394765      -0.00001177      -0.00003528      -0.00012327
Sc      11.07764250       8.55444578       6.99492773      -0.00002667      -0.00001817       0.00013844
Sc       6.03122402       8.55444681      10.11397834       0.00000992      -0.00000250      -0.00015186
Sc       6.03120843       8.55443404       6.99489126       0.00004131       0.00001420       0.00014106
Sc       8.55445366      10.11396853      11.07761657      -0.00002032      -0.00013772       0.00000843
Sc       8.55447666      10.11396880       6.03124129      -0.00003153      -0.00013193       0.00000181
Sc       8.55443264       6.99491589      11.07764937       0.00000071       0.00013836      -0.00004700
Sc       8.55445714       6.99489268       6.03121574      -0.00001215       0.00014557       0.00002415
14
Lattice="17.795867 0.0 0.0 0.0 17.795867 0.0 0.0 0.0 17.795867" Properties=species:S:1:pos:R:3:forces:R:3 config_type=qcd dft_energy=-67.36252608 gap_energy=-67.19123281063688 relaxed_gap_energy=-67.22662398393055 energy=-67.22662398393055 free_energy=-67.22662398393055 pbc="T T T"
Sc       8.74754317       9.08992638       9.01629600       0.00013670       0.00020264       0.00000778
Sc      10.81537769       6.85080056       9.96255189      -0.00014161       0.00026188       0.00034958
Sc       6.02994941       8.45887470       9.90773232       0.00015510       0.00079065       0.00018159
Sc       9.85698784      11.77462048       9.39072393      -0.00082185      -0.00017146       0.00027781
Sc      11.40231694       9.17395563       7.98349212       0.00052541       0.00012777      -0.00017422
Sc      10.75165513       9.53382396      11.23552303      -0.00004316      -0.00038196      -0.00004782
Sc       6.55299952       8.88929720       6.94700634       0.00030176       0.00001971      -0.00024953
Sc       7.85965046      10.50182793      11.49849802       0.00000685      -0.00001379      -0.00019703
Sc       8.38988138       7.48760159      11.55457947       0.00039191      -0.00004609      -0.00004169
Sc       8.16067128       6.36543069       8.42142915      -0.00028013      -0.00071835      -0.00011181
Sc       6.77738520      11.32768611       8.78378871       0.00013193      -0.00010850       0.00010431
Sc       8.91476591      10.93552602       6.62793381      -0.00007834      -0.00035380      -0.00012893
Sc       9.25330272       8.04279742       6.04430099      -0.00026800       0.00035450       0.00001625
Sc      11.05858234       6.13890035       7.19721322      -0.00001658       0.00003681       0.00001372
15
Lattice="20.34544998747988 0.0 0.0 0.0 20.34544998747988 0.0 0.0 0.0 20.34544998747988" Properties=species:S:1:pos:R:3:forces:R:3 config_type=qcd dft_energy=-72.35605481 gap_energy=-71.97829670636999 relaxed_gap_energy=-72.32603137132661 energy=-72.32603137132661 free_energy=-72.32603137132661 pbc="T T T"
Sc       9.56391546       9.49613613       7.06515350       0.00041019      -0.00049503      -0.00019457
Sc      10.38204856      12.24346936       7.70424522       0.00010042      -0.00046515      -0.00015129
Sc      12.43550029       9.84284308       8.58274026      -0.00063098      -0.00002245       0.00033425
Sc       7.59417929      11.29856444       8.57408600       0.00060464       0.00056504       0.00045506
Sc      10.26917870      10.29410077      10.28857974       0.00012537       0.00010939       0.00008476
Sc      12.08906213      12.78230015      10.05266713       0.00025643       0.00003887       0.00028148
Sc       7.63172839       8.42999380       9.18788015      -0.00027879      -0.00036909       0.00057888
Sc      10.43348580       7.26792197       8.76549818      -0.00009806       0.00016590      -0.00048142
Sc       9.03784954      13.19576020      10.30288804      -0.00086453      -0.00049280       0.00009293
Sc       9.10220113       7.43456763      11.52370469       0.00015030       0.00053931      -0.00034935
Sc      12.12466047       7.77865274      11.11219949       0.00007004      -0.00002987      -0.00051723
Sc      12.96828305      10.53121401      11.77160234       0.00003273       0.00031235       0.00007576
Sc       7.87945422      10.46427436      11.72608665       0.00062469       0.00011208      -0.00014720
Sc      10.52710516      12.21599823      12.66768544       0.00021104      -0.00018091      -0.00013643
Sc      10.55222269       9.31507802      13.26585809      -0.00071348       0.00021234       0.00007436
15
Lattice="19.36271401125541 0.0 0.0 0.0 19.36271401125541 0.0 0.0 0.0 19.36271401125541" Properties=species:S:1:pos:R:3:forces:R:3 config_type=qcd dft_energy=-72.35152052 gap_energy=-72.0701694994338 relaxed_gap_energy=-72.13771053298429 energy=-72.13771053298429 free_energy=-72.13771053298429 pbc="T T T"
Sc      11.16010665      11.99905811      13.81205807      -0.00018932      -0.00040068      -0.00029099
Sc      10.12165350       9.01996708      13.80126930      -0.00037502       0.00034755      -0.00001197
Sc      12.89115463       9.73142947      12.61795515      -0.00053524       0.00012791      -0.00003604
Sc      10.34579182      10.60962999      11.38886741       0.00077899      -0.00043621      -0.00044007
Sc       9.72872812      13.50088788      11.51857457       0.00036579      -0.00007709      -0.00006325
Sc      12.73884053      12.50803439      11.01601336      -0.00031836      -0.00063436       0.00013922
Sc       8.14767667      11.37282716      13.11536139      -0.00006811      -0.00007883       0.00013549
Sc      10.76393661      12.25047488       8.66507972       0.00021237       0.00010018      -0.00000659
Sc      13.65026233      12.38608732       7.98434811      -0.00042901       0.00022006       0.00001741
Sc      11.03581052       7.74255650      11.13502577      -0.00016920       0.00043834       0.00016383
Sc       7.87365629      11.51222463      10.03581985       0.00020661      -0.00023567      -0.00024648
Sc      12.72004896       9.91814799       9.34601200       0.00011302       0.00007671       0.00007989
Sc       8.11806537       8.73804508      11.38059720       0.00055306       0.00032393       0.00016917
Sc      11.86601473      10.47324076       6.55822422      -0.00017435       0.00034800      -0.00043807
Sc       9.77636721       9.33210809       8.64784230       0.00002878      -0.00011983       0.00082844
15
Lattice="20.67186676003639 0.0 0.0 0.0 20.67186676003639 0.0 0.0 0.0 20.67186676003639" Properties=species:S:1:pos:R:3:forces:R:3 config_type=qcd dft_energy=-72.33188312 gap_energy=-71.63978285335766 relaxed_gap_energy=-72.32603171688672 energy=-72.32603171688672 free_energy=-72.32603171688672 pbc="T T T"
Sc       9.71546066       9.66440009       7.22849896      -0.00012395      -0.00051440       0.00075689
Sc      10.54280191      12.40769783       7.86782456      -0.00012739       0.00041395       0.00033216
Sc      12.59138033      10.00399530       8.73654313       0.00043930       0.00026061       0.00045147
Sc       7.75629441      11.47092424       8.74487678      -0.00023002       0.00004439      -0.00003790
Sc      10.43963870      10.43574498      10.46576124       0.00013736      -0.00002639      -0.00020867
Sc      12.25626355      12.93993494      10.21031716      -0.00048811      -0.00018606      -0.00032105
Sc       7.78598783       8.60189620       9.35620033       0.00006223       0.00029740      -0.00039630
Sc      10.58412726       7.43224681       8.92402713      -0.00035208       0.00020421      -0.00034400
Sc       9.20950949      13.36035069      10.46998237       0.00017542      -0.00006382      -0.00026660
Sc       9.26173897       7.60252122      11.68705628       0.00039464       0.00006775       0.00037539
Sc      12.28542868       7.93719656      11.26678948      -0.00006618       0.00033389       0.00032053
Sc      13.13874186      10.68934763      11.92717347      -0.00039154      -0.00053442      -0.00004951
Sc       8.04700439      10.63617623      11.89432490       0.00036629       0.00000112      -0.00027130
Sc      10.70240366      12.37917688      12.82935263       0.00012591       0.00014408      -0.00011838
Sc      10.72221899       9.47739109      13.43027228       0.00007812      -0.00044231      -0.00022272
15
Lattice="20.57395332126796 0.0 0.0 0.0 20.57395332126796 0.0 0.0 0.0 20.57395332126796" Properties=species:S:1:pos:R:3:forces:R:3 config_type=qcd dft_energy=-72.3294967 gap_energy=-72.12005404574677 relaxed_gap_energy=-72.32603147285431 energy=-72.32603147285431 free_energy=-72.32603147285431 pbc="T T T"
Sc       7.41763485       9.83930672       8.85451436       0.00036728      -0.00013965       0.00001382
Sc       9.87232864      10.29623237       7.07727854       0.00013574       0.00037109       0.00000657
Sc      12.44234256       9.29998036       8.82517205      -0.00014169       0.00000636      -0.00015174
Sc      11.04940361       7.21689194      10.96976030      -0.00015119       0.00018183       0.00055137
Sc      10.39247244      13.47409648      10.81181884       0.00029552      -0.00069226      -0.00005917
Sc       9.91678092       8.99260197      13.23790367       0.00034220       0.00035752      -0.00031124
Sc      13.04039167      11.91884190      10.71379903      -0.00037520      -0.00012160      -0.00017782
Sc      10.35850892      10.20850082      10.44929129      -0.00062198       0.00038739      -0.00000852
Sc      11.58882315      12.39378815       8.20080282       0.00009716       0.00029338       0.00060848
Sc       8.08779235       8.06847995      11.10486345       0.00021221       0.00022693      -0.00004833
Sc      12.78715521       9.32761390      12.11684290      -0.00057622      -0.00011769      -0.00006813
Sc       8.10912371      11.29873026      11.69773380       0.00055023      -0.00024350      -0.00039221
Sc       8.57050894      12.53381055       8.71227347      -0.00047809      -0.00065247      -0.00020602
Sc       9.59793707       7.71792688       8.45207123       0.00001503       0.00044735       0.00028036
Sc      11.07344585      11.71784765      13.08052419       0.00032901      -0.00030467      -0.00003743
15
Lattice="21.18272873516587 0.0 0.0 0.0 21.18272873516587 0.0 0.0 0.0 21.18272873516587" Properties=species:S:1:pos:R:3:forces:R:3 config_type=qcd dft_energy=-72.31281252 gap_energy=-71.9970798469939 relaxed_gap_energy=-72.32603101862097 energy=-72.32603101862097 free_energy=-72.32603101862097 pbc="T T T"
Sc      10.94963056      12.44669864       8.54535105       0.00006910      -0.00010576       0.00065407
Sc      10.39985315      10.61903257      10.58591145      -0.00032360       0.00014387       0.00012707
Sc      11.04810114       7.52169122       9.68846482       0.00028533       0.00042073      -0.00004413
Sc      13.61893900      11.69110582      10.26548815      -0.00022900      -0.00024620      -0.00016397
Sc      13.21876017       8.80077409      11.19345273       0.00001827      -0.00001079       0.00033406
Sc       8.81256488      13.27526358      10.91900662       0.00020160       0.00018830      -0.00025715
Sc       8.26159773       8.40980958      10.06224256      -0.00029736       0.00012892      -0.00053960
Sc      11.68272798      13.47046502      11.56955001      -0.00043537      -0.00043831      -0.00015911
Sc       9.85844895      11.87690594      13.46155972       0.00053031       0.00006737      -0.00008298
Sc       7.65055564      10.60258775      11.96081696       0.00047016      -0.00036447       0.00020941
Sc      12.63058994      10.97222962      13.07663932       0.00001791       0.00002939       0.00013175
Sc      10.29385528       8.72687576      12.63893053      -0.00043135       0.00065714      -0.00023653
Sc      12.71015195       9.70147259       8.30943951       0.00001208       0.00036865       0.00005117
Sc       9.85314276       9.48526598       7.65028036      -0.00054462      -0.00038028      -0.00038768
Sc       7.88154639      11.27028736       8.94333173       0.00065655      -0.00045855       0.00036362
16
Lattice="22.71207271728164 0.0 0.0 0.0 22.71207271728164 0.0 0.0 0.0 22.71207271728164" Properties=species:S:1:pos:R:3:forces:R:3 config_type=qcd dft_energy=-77.67957034 gap_energy=-77.30446661752394 relaxed_gap_energy=-77.47580252470341 energy=-77.47580252470341 free_energy=-77.47580252470341 pbc="T T T"
Sc      11.50270209      10.97571532       8.12249248      -0.00055528       0.00015846      -0.00018885
Sc      11.52991567       9.78566152      10.87371432      -0.00008322       0.00044205       0.00054509
Sc      11.28394154      13.64549025       9.82498142      -0.00031078       0.00002608      -0.00026550