3
Lattice="16.60770831320195 0.0 0.0 0.0 16.60770831320195 0.0 0.0 0.0 16.60770831320195" Properties=species:S:1:pos:R:3:forces:R:3 config_type=qcd dft_energy=-9.10603292 gap_energy=-9.281184383553736 relaxed_gap_energy=-9.298673324726963 energy=-9.298673324726963 free_energy=-9.298673324726963 pbc="T T T"
Se       8.82507192       8.15935986       7.65480774       0.00002639       0.00074568      -0.00037885
Se       7.85122375      10.13954612       8.08167236       0.00015297      -0.00036589      -0.00004185
Se       8.23526680       6.61265649       9.17508236      -0.00017936      -0.00037979       0.00042070
4
Lattice="18.98460996782321 0.0 0.0 0.0 18.98460996782321 0.0 0.0 0.0 18.98460996782321" Properties=species:S:1:pos:R:3:forces:R:3 config_type=qcd dft_energy=-12.87230912 gap_energy=-13.009235050020523 relaxed_gap_energy=-13.336087882042294 energy=-13.336087882042294 free_energy=-13.336087882042294 pbc="T T T"
Se       9.72781087      10.61985490       9.65780928       0.00006456      -0.00011860      -0.00015615
Se       8.17693534       9.18485749      10.56271006      -0.00017758       0.00019803       0.00040120
Se      10.03572069       9.01405877       7.63792193       0.00021262       0.00027380      -0.00010412
Se       8.48477118       7.57916537       8.54282126      -0.00009960      -0.00035323      -0.00014093
5
Lattice="15.41616497917695 0.0 0.0 0.0 15.41616497917695 0.0 0.0 0.0 15.41616497917695" Properties=species:S:1:pos:R:3:forces:R:3 config_type=qcd dft_energy=-16.75334176 gap_energy=-16.91227897833187 relaxed_gap_energy=-17.169947330550755 energy=-17.169947330550755 free_energy=-17.169947330550755 pbc="T T T"
Se       9.24784878       7.57699901       9.89650825      -0.00041098       0.00020323      -0.00042772
Se       7.00640147       8.32069981       9.84702961       0.00078812      -0.00030937       0.00022155
Se      10.13224847       7.77832580       7.71551463      -0.00003170      -0.00012552       0.00080463
Se       6.50598968       8.98289541       7.63585922       0.00049869       0.00001031      -0.00063295
Se       8.43867531       8.65007930       6.31909216      -0.00084412       0.00022135       0.00003449
6
Lattice="18.24113830885067 0.0 0.0 0.0 18.24113830885067 0.0 0.0 0.0 18.24113830885067" Properties=species:S:1:pos:R:3:forces:R:3 config_type=qcd dft_energy=-20.45826759 gap_energy=-20.545027861602037 relaxed_gap_energy=-20.605708033914382 energy=-20.605708033914382 free_energy=-20.605708033914382 pbc="T T T"
Se       8.48340364       6.50543163       8.56536453       0.00066639      -0.00026153       0.00030642
Se       7.19364296      10.04376665       7.73956509      -0.00026250       0.00001282      -0.00067952
Se      10.86847157       9.52581076       8.78825237      -0.00071794      -0.00001305       0.00018254
Se       9.01204288      10.98166843       8.92172597       0.00038582       0.00038763       0.00030994
Se       6.62580688       7.95965247       8.69766981      -0.00000704       0.00037301       0.00031103
Se      10.29869609       7.44478858       9.75131709      -0.00006473      -0.00049888      -0.00043041
7
Lattice="16.46641485273863 0.0 0.0 0.0 16.46641485273863 0.0 0.0 0.0 16.46641485273863" Properties=species:S:1:pos:R:3:forces:R:3 config_type=qcd dft_energy=-24.06425727 gap_energy=-23.9645662479643 relaxed_gap_energy=-24.039993869074223 energy=-24.039993869074223 free_energy=-24.039993869074223 pbc="T T T"
Se       8.65584340      11.26210624       8.21611836      -0.00041918      -0.00006186      -0.00010515
Se       7.28856352      10.74762925      10.07332618      -0.00012926      -0.00043521      -0.00004016
Se      10.68196574      10.05740207       8.37943222       0.00086594       0.00002508       0.00032186
Se      10.59103931       8.17359774       6.95581659      -0.00030101      -0.00001697      -0.00015619
Se       8.71046997       7.16446584      10.16729411      -0.00033388       0.00040331      -0.00074760
Se       6.73369312       8.45115928      10.02416205       0.00017784       0.00020798       0.00036134
Se       9.34332633       6.46116610       8.00197041       0.00013956      -0.00012232       0.00036589
8
Lattice="17.52170034891512 0.0 0.0 0.0 17.52170034891512 0.0 0.0 0.0 17.52170034891512" Properties=species:S:1:pos:R:3:forces:R:3 config_type=qcd dft_energy=-27.79111765 gap_energy=-27.470771813273956 relaxed_gap_energy=-27.47427939020946 energy=-27.47427939020946 free_energy=-27.47427939020946 pbc="T T T"
Se      11.77037786       7.96492739       9.66656377       0.00013486       0.00004826       0.00023349
Se      11.95992562      10.26803710      10.16002829       0.00057666      -0.00009638      -0.00031646
Se      10.64254464       7.69610754       7.60769175       0.00003437       0.00001492      -0.00021101
Se      10.18762078      10.91201178      11.58380648      -0.00041966       0.00013761       0.00028456
Se       8.36442662       7.22302476       8.01967221      -0.00028282      -0.00008662       0.00003536
Se       7.10016687       9.20684906       7.79655107       0.00001633      -0.00003729      -0.00018759
Se       8.43664497      11.82797596      10.28813734       0.00010437       0.00014113       0.00011450
Se       6.78438430      10.17773567       9.92754752      -0.00016412      -0.00012163       0.00004714
9
Lattice="18.024366 0.0 0.0 0.0 18.024366 0.0 0.0 0.0 18.024366" Properties=species:S:1:pos:R:3:forces:R:3 config_type=qcd dft_energy=-30.89428581 gap_energy=-30.89320037405851 relaxed_gap_energy=-30.908564166518687 energy=-30.908564166518687 free_energy=-30.908564166518687 pbc="T T T"
Se       9.01218300       9.01218300      12.02729511      -0.00000000       0.00000000      -0.00002594
Se       7.66644098      10.39269502      10.66097392      -0.00002573      -0.00013145      -0.00001115
Se      10.35792502       7.63167098      10.66097392       0.00002573       0.00013145      -0.00001115
Se       9.01713670      12.04442942       9.64556389      -0.00033775       0.00032594       0.00046334
Se       9.00722930       5.97993658       9.64556389       0.00033775      -0.00032594       0.00046334
Se      10.34954120      11.04445056       7.96993793       0.00058900      -0.00002437      -0.00024815
Se       7.67482480       6.97991544       7.96993793      -0.00058900       0.00002437      -0.00024815
Se       8.95343552      10.19220012       6.26470020       0.00002164      -0.00028890      -0.00019107
Se       9.07093048       7.83216588       6.26470020      -0.00002164       0.00028890      -0.00019107
9
Lattice="18.69614167320493 0.0 0.0 0.0 18.69614167320493 0.0 0.0 0.0 18.69614167320493" Properties=species:S:1:pos:R:3:forces:R:3 config_type=qcd dft_energy=-30.88332621 gap_energy=-30.85237598153978 relaxed_gap_energy=-30.90855816496024 energy=-30.90855816496024 free_energy=-30.90855816496024 pbc="T T T"
Se       8.88763032      12.18630015      10.63274113       0.00004404       0.00029545      -0.00029182
Se      10.49502511       7.08111579       9.55319916      -0.00046973       0.00018919       0.00065229
Se      12.04529597       8.53817075       8.52510109      -0.00002058      -0.00004289       0.00031699
Se       8.88197045       6.40628403       7.96388251      -0.00055049      -0.00006594      -0.00046254
Se       6.81333002       7.43840782       8.45487724      -0.00001443      -0.00033514      -0.00041275
Se      12.25947032      10.49678115       9.82936126       0.00002679       0.00015990      -0.00020665
Se       7.05090970       8.80871782      10.36519717       0.00051313      -0.00014541      -0.00018882
Se      10.68302884      12.09830625       9.09899533       0.00021023       0.00050825      -0.00003246
Se       7.01597681      11.07855376       9.70928266       0.00026104      -0.00056340       0.00062575
10
Lattice="20.11208984384615 0.0 0.0 0.0 20.11208984384615 0.0 0.0 0.0 20.11208984384615" Properties=species:S:1:pos:R:3:forces:R:3 config_type=qcd dft_energy=-34.58919052 gap_energy=-34.33815149006166 relaxed_gap_energy=-34.34284929463291 energy=-34.34284929463291 free_energy=-34.34284929463291 pbc="T T T"
Se       7.19552822       9.06245634       5.68718638      -0.00018716       0.00018202       0.00031010
Se      10.78090190      10.16286800       6.58191906      -0.00017187       0.00004842      -0.00031977
Se       8.58572714      10.91844658       6.14139805      -0.00001051      -0.00017736       0.00000932
Se       5.57625084       8.86052781       7.39633076       0.00036584       0.00016979      -0.00040459
Se       5.79348436       6.74889655       8.43413968      -0.00009688      -0.00023341       0.00005549
Se      11.29678683      10.54024147       8.85672341      -0.00003536       0.00019725       0.00010838
Se       6.47574142       7.04549635      10.67694142      -0.00014827       0.00010185       0.00002618
Se      11.71486111       8.47074561       9.91772416       0.00011588      -0.00025645       0.00014767
Se       8.70020294       6.28809342      10.92480529       0.00024313      -0.00003930       0.00004258
Se      10.07457489       8.09628752      11.57689146      -0.00007480       0.00000718       0.00002464
11
Lattice="18.529994 0.0 0.0 0.0 18.529994 0.0 0.0 0.0 18.529994" Properties=species:S:1:pos:R:3:forces:R:3 config_type=qcd dft_energy=-37.83700758 gap_energy=-37.76005648455043 relaxed_gap_energy=-37.777133246007566 energy=-37.777133246007566 free_energy=-37.777133246007566 pbc="T T T"
Se       9.26499700       9.26499700      12.66404370      -0.00000000       0.00000000       0.00084200
Se       7.96396474      10.68787096      11.29801447      -0.00016532      -0.00004256      -0.00018698
Se      10.56602926       7.84212304      11.29801447       0.00016532       0.00004256      -0.00018698
Se       9.23994830      12.58739885      10.70913986      -0.00023200       0.00034085      -0.00032271
Se       9.29004570       5.94259515      10.70913986       0.00023200      -0.00034085      -0.00032271
Se      11.03103367      11.92568444       9.31711660       0.00079345      -0.00029609       0.00044879
Se       7.49896033       6.60430956       9.31711660      -0.00079345       0.00029609       0.00044879
Se      10.31300571      11.91859231       7.06597202      -0.00052946       0.00012691      -0.00062068
Se       8.21698829       6.61140169       7.06597202       0.00052946      -0.00012691      -0.00062068
Se      10.36080121       9.70694607       6.23521868      -0.00070944      -0.00024668       0.00026058
Se       8.16919279       8.82304793       6.23521868       0.00070944       0.00024668       0.00026058
12
Lattice="19.628312 0.0 0.0 0.0 19.628312 0.0 0.0 0.0 19.628312" Properties=species:S:1:pos:R:3:forces:R:3 config_type=qcd dft_energy=-41.41667995 gap_energy=-41.200515287832644 relaxed_gap_energy=-41.21141871252617 energy=-41.21141871252617 free_energy=-41.21141871252617 pbc="T T T"
Se      11.74166639      13.15295982       9.81427997      -0.00020748       0.00047522      -0.00063619
Se      13.66925732       9.81415600       9.81415600       0.00037096      -0.00000000      -0.00000000
Se      11.74166639       6.47535218       9.81403203      -0.00020748      -0.00047522       0.00063619
Se       7.88664561       6.47535218       9.81403203       0.00020748      -0.00047522       0.00063619
Se       5.95905468       9.81415600       9.81415600      -0.00037096      -0.00000000      -0.00000000
Se       7.88664561      13.15295982       9.81427997       0.00020748       0.00047522      -0.00063619
Se       7.32554533      11.25109620      11.09917060       0.00000371      -0.00031565       0.00052482
Se      12.30276667      11.25109620      11.09917060      -0.00000371      -0.00031565       0.00052482
Se       9.81415600       6.94018963      11.09948898      -0.00000000      -0.00019996      -0.00058173
Se      12.30276667       8.37721580       8.52914140      -0.00000371       0.00031565      -0.00052482
Se       9.81415600      12.68812237       8.52882302      -0.00000000       0.00019996       0.00058173
Se       7.32554533       8.37721580       8.52914140       0.00000371       0.00031565      -0.00052482
13
Lattice="21.30580646523669 0.0 0.0 0.0 21.30580646523669 0.0 0.0 0.0 21.30580646523669" Properties=species:S:1:pos:R:3:forces:R:3 config_type=qcd dft_energy=-44.93038648 gap_energy=-44.60793370013096 relaxed_gap_energy=-44.64570372252969 energy=-44.64570372252969 free_energy=-44.64570372252969 pbc="T T T"
Se       7.21143221       9.29764366       8.94089206       0.00037662       0.00000278       0.00052953
Se       8.22083300       7.99141584      10.63169080      -0.00056802       0.00040212      -0.00029132
Se       7.56836342      13.06805955       9.66388737      -0.00029629       0.00023530      -0.00021446
Se       9.74545873       6.47919976       9.64596437       0.00022300      -0.00053612      -0.00003151
Se       8.52814521      11.21986141       8.54741254       0.00002315      -0.00010035      -0.00013218
Se       8.69393242      13.41665007      11.71208052      -0.00018112      -0.00024794       0.00023543
Se      10.40931873      15.01168178      11.40120628      -0.00002759       0.00013444      -0.00004826
Se      11.76789438       7.60500323       9.17065639       0.00007970       0.00015371      -0.00013935
Se      12.85358205       9.21875903      12.49981369       0.00022672      -0.00018255      -0.00014355
Se      13.22431987       7.41295729      11.02142750       0.00002787       0.00029928       0.00030250
Se      12.41774082      14.19248803      12.33838124       0.00042261      -0.00023487      -0.00021328
Se      13.40893988      12.65500396      10.84250054       0.00003433       0.00027403       0.00016690
Se      14.43778130      10.91901842      12.07182872      -0.00034098      -0.00019984      -0.00002046
13
Lattice="20.0810299041291 0.0 0.0 0.0 20.0810299041291 0.0 0.0 0.0 20.0810299041291" Properties=species:S:1:pos:R:3:forces:R:3 config_type=qcd dft_energy=-44.91951389 gap_energy=-44.614225363586314 relaxed_gap_energy=-44.645701433605694 energy=-44.645701433605694 free_energy=-44.645701433605694 pbc="T T T"
Se      11.57233049       8.76374562       6.21031498      -0.00006561       0.00034949       0.00003416
Se      12.77239696       7.71549059       9.72245729      -0.00022661       0.00019186      -0.00045986
Se      11.67942391      11.10053271       6.54488743       0.00030660       0.00039810       0.00018189
Se      12.33241175       9.21233836      11.49702923      -0.00055919      -0.00017677       0.00010710
Se      10.94049097       7.71200735       8.22973221      -0.00023879      -0.00032817       0.00039413
Se       9.49229206      11.95765688       6.80135564      -0.00004968       0.00001782       0.00043176
Se       9.81994066      12.66269820      10.57815408      -0.00013165       0.00010189      -0.00004250
Se      11.24636371       8.05406295      13.24721137       0.00018210       0.00010719       0.00047170
Se       9.50149070      13.64712896       8.45363364      -0.00009409      -0.00087656       0.00001097
Se       7.76157285      12.61693881      11.73799314       0.00025692      -0.00029655      -0.00073165
Se       9.05171838       7.49285411      12.57434144       0.00037495      -0.00016808      -0.00036258
Se       7.54521756       9.13037844      13.36954043       0.00022913       0.00012320      -0.00041278
Se       6.81104441      10.46086141      11.56004351       0.00001591       0.00055659       0.00037767
13
Lattice="20.31098137217013 0.0 0.0 0.0 20.31098137217013 0.0 0.0 0.0 20.31098137217013" Properties=species:S:1:pos:R:3:forces:R:3 config_type=qcd dft_energy=-44.90899626 gap_energy=-44.609540360935924 relaxed_gap_energy=-44.64570051838332 energy=-44.64570051838332 free_energy=-44.64570051838332 pbc="T T T"
Se      12.64211219       8.88567748       6.95151035       0.00016264       0.00014259      -0.00072380
Se      13.32243624       7.83384732       8.95506399      -0.00049734       0.00053999      -0.00003987
Se      10.34672412       8.46243294       6.58269080      -0.00017749       0.00012175       0.00021907
Se      14.06960917       9.47451067      10.48254119       0.00014484      -0.00002680       0.00018988
Se       9.07626654       9.48828889       8.29083712       0.00006116      -0.00066107       0.00033924
Se      11.44064736       9.70954594      13.29150638      -0.00032163       0.00022767       0.00047602
Se       9.39670139       8.59775990      12.87900018       0.00002672       0.00013085      -0.00033516
Se      12.21444492      10.69604066      11.28865549       0.00011338      -0.00059196       0.00003156
Se       8.70313398      11.75505933       7.73782960      -0.00002131       0.00011376       0.00039612
Se       9.20184437      13.10855549       9.60958115       0.00039622       0.00039550      -0.00019511
Se       7.60054491      10.03381608      13.42237841       0.00005255       0.00014438      -0.00005417
Se       6.64178747      10.87585483      11.43351046       0.00016543       0.00006341       0.00009035
Se       7.36512625      13.09998939      11.09627380      -0.00010516      -0.00060007      -0.00039413
13
Lattice="19.98578599346634 0.0 0.0 0.0 19.98578599346634 0.0 0.0 0.0 19.98578599346634" Properties=species:S:1:pos:R:3:forces:R:3 config_type=qcd dft_energy=-44.89301874 gap_energy=-44.61017148282801 relaxed_gap_energy=-44.64570212438743 energy=-44.64570212438743 free_energy=-44.64570212438743 pbc="T T T"
Se      12.40699643       8.69623575      12.60497963      -0.00015037       0.00018055      -0.00004214
Se      13.47676411      11.56222904      10.25788793       0.00014670       0.00001604       0.00047704
Se      11.80785003      10.81864993      11.75652219       0.00028803       0.00018137      -0.00009636
Se      11.74976806       7.02579182      11.06840163       0.00018154      -0.00041158      -0.00000796
Se      13.13820966      10.55511543       8.14742736      -0.00048665       0.00014728       0.00002755
Se       9.46331748       6.52265971      11.38887681       0.00057903      -0.00004792       0.00004406
Se      10.85123519      10.01586321       7.89753911      -0.00029559      -0.00008118      -0.00015378
Se       8.18646132       7.58420893       9.70791682      -0.00051973      -0.00042447      -0.00011333
Se       9.70740782      11.86352980       6.96918279       0.00030868       0.00020611      -0.00010085
Se       8.85867367      13.21599650       8.71112584       0.00002256      -0.00048524      -0.00028039
Se       6.39196345       8.75041998      10.70933906       0.00018432      -0.00000245      -0.00019710
Se       7.09751180      10.93427722      11.27121283      -0.00055202       0.00068631      -0.00005405
Se       6.77144992      12.36263162       9.41719696       0.00029347       0.00003519       0.00049731
13
Lattice="20.77915527706154 0.0 0.0 0.0 20.77915527706154 0.0 0.0 0.0 20.77915527706154" Properties=species:S:1:pos:R:3:forces:R:3 config_type=qcd dft_energy=-44.88537438 gap_energy=-44.602239397430395 relaxed_gap_energy=-44.645703807092545 energy=-44.645703807092545 free_energy=-44.645703807092545 pbc="T T T"
Se      13.52201649       8.53678666      10.16903572      -0.00038418       0.00025025       0.00011339
Se      12.59727152      10.53567959       9.31278012       0.00020831      -0.00016684       0.00024228
Se      12.41993649      10.37222618       6.96221215      -0.00010413      -0.00021683      -0.00019401
Se      12.24844467       8.69003828      13.80533657       0.00000291       0.00032752      -0.00002351
Se      12.02246755       7.58614626      11.72834800       0.00011618      -0.00000646      -0.00021177
Se      11.53051015      10.93041940      13.58339909       0.00019755      -0.00035971      -0.00015419
Se       9.26761406      11.09600421      14.24302831      -0.00054328      -0.00003181      -0.00025228
Se      10.48854194       9.12872674       6.40784684       0.00077117      -0.00002430      -0.00039966
Se       8.83795624      13.14422928       9.47571143       0.00004730       0.00013118       0.00046286
Se       7.87719112      10.77273815      12.35979779       0.00042096      -0.00000875       0.00046978
Se       7.42800001      12.86163351      11.35085906       0.00015445       0.00002803      -0.00035504
Se       8.78320157       9.59236492       7.97610967      -0.00048097      -0.00014643       0.00057174
Se       8.04135749      11.81751616       7.69004455      -0.00040628       0.00022413      -0.00026959
13
Lattice="20.97893169352995 0.0 0.0 0.0 20.97893169352995 0.0 0.0 0.0 20.97893169352995" Properties=species:S:1:pos:R:3:forces:R:3 config_type=qcd dft_energy=-44.88074761 gap_energy=-44.578538198924164 relaxed_gap_energy=-44.645699872096145 energy=-44.645699872096145 free_energy=-44.645699872096145 pbc="T T T"
Se      13.82856580       7.98359820       9.27841103      -0.00007275       0.00075311       0.00007783
Se      11.47972810       7.72675932       9.26586658      -0.00038452      -0.00011753       0.00037660
Se      14.43118914       9.73171412       7.80712507       0.00022303       0.00041971      -0.00030769
Se      10.75145711       7.07939504      11.41863889      -0.00048220       0.00012666       0.00007174
Se      14.50856223      11.77035429       8.99985615       0.00006944      -0.00092386       0.00032709
Se       9.71522138       8.91824154      12.48122204      -0.00008191       0.00023770      -0.00032869
Se       7.37505899       8.78063298      12.18249411       0.00061829      -0.00075948       0.00001324
Se      12.37107111      12.77723633       8.97021342      -0.00004074       0.00022589      -0.00040370
Se      10.94185795      11.62555548      10.45827426      -0.00023937      -0.00006174       0.00028510
Se       6.69107749      10.39454703      10.59798382      -0.00011812       0.00019999       0.00035187
Se      10.03267941      13.15588317      12.01248841       0.00084924       0.00048331      -0.00019323
Se       6.25982998      12.43930883      11.70101985      -0.00043097       0.00009911      -0.00082538
Se       7.97675733      13.97982969      11.18946241       0.00009058      -0.00068285       0.00055522
14
Lattice="19.35295350520453 0.0 0.0 0.0 19.35295350520453 0.0 0.0 0.0 19.35295350520453" Properties=species:S:1:pos:R:3:forces:R:3 config_type=qcd dft_energy=-48.17593648 gap_energy=-48.01539554967975 relaxed_gap_energy=-48.0799885470273 energy=-48.0799885470273 free_energy=-48.0799885470273 pbc="T T T"
Se      11.83820162      10.53334599       7.77860799      -0.00004897      -0.00004138      -0.00000999
Se       9.50720925      10.71911438       7.43828734       0.00004735      -0.00004287       0.00024644
Se      10.38773191      14.53525760      10.33036566      -0.00007785       0.00019751      -0.00008972
Se       9.91512196       6.88700055       7.32882614      -0.00002906      -0.00029500       0.00007485
Se       8.47492338       8.65536256       7.94717684       0.00036821       0.00005386      -0.00001671
Se      12.53505481      13.60542210      10.00175320      -0.00015058      -0.00015357       0.00014185
Se      12.36981706      11.24851032       9.96714847      -0.00008635       0.00003715      -0.00019298
Se      11.63088733       7.51809803      10.72310797       0.00030459       0.00001639      -0.00024501
Se      10.51246313      12.56624359      13.64273760       0.00056688       0.00002868       0.00041197
Se       9.91855048      14.62400594      12.64459763      -0.00010729       0.00005414      -0.00019965
Se      10.77361243       5.85881262       9.27553814      -0.00025899       0.00047176      -0.00010453
Se       8.65612634       9.63028729      11.97112753      -0.00020141      -0.00006812      -0.00020284
Se      10.12076659       7.85572018      12.50888130      -0.00011448      -0.00037737       0.00032169
Se       8.60723729      11.17351075      13.75979520      -0.00021205       0.00011881      -0.00013539
15
Lattice="22.71053550832858 0.0 0.0 0.0 22.71053550832858 0.0 0.0 0.0 22.71053550832858" Properties=species:S:1:pos:R:3:forces:R:3 config_type=qcd dft_energy=-51.96076061 gap_energy=-51.479480271704205 relaxed_gap_energy=-51.51427305541337 energy=-51.51427305541337 free_energy=-51.51427305541337 pbc="T T T"
Se       9.29603064       6.20723360       5.71961697       0.00005823      -0.00013898      -0.00004656
Se      10.52765033       8.21768376       5.56262258       0.00031360       0.00004785       0.00015919
Se       9.67488130      12.40304398       9.70822590       0.00031747      -0.00003536      -0.00022148
Se       7.59390140       6.45638554       7.33958436      -0.00021184      -0.00001233      -0.00016566
Se      12.55270451       7.99041871       6.75903174      -0.00033983       0.00022462       0.00017287
Se      11.74244818      12.27330378       8.57131193      -0.00029158      -0.00033275       0.00030058
Se       8.81631048       8.99136138       9.97468295       0.00067608       0.00001480      -0.00011376
Se      12.17108171       8.46910608       9.04133343       0.00008327       0.00080548      -0.00017713
Se       8.57517465       6.69429697       9.47590454       0.00010109      -0.00021768       0.00007884
Se       9.94707834      13.66367589      11.68822584       0.00007735      -0.00036021      -0.00024960
Se      13.07530351      10.59027426       9.55869137      -0.00023830      -0.00038554      -0.00009217
Se       9.91060927      12.21069212      13.55127062       0.00001946       0.00002634       0.00019029
Se       6.82664025       9.78936107      10.96829075      -0.00069535       0.00035207       0.00034375
Se       7.02213347       9.66705772      13.32004556       0.00007884      -0.00018848      -0.00011786
Se       7.66953310      11.77758625      14.16264258       0.00005151       0.00020017      -0.00006129
16
Lattice="19.85335671690312 0.0 0.0 0.0 19.85335671690312 0.0 0.0 0.0 19.85335671690312" Properties=species:S:1:pos:R:3:forces:R:3 config_type=qcd dft_energy=-54.42353145 gap_energy=-54.20308157736183 relaxed_gap_energy=-54.617740636020216 energy=-54.617740636020216 free_energy=-54.617740636020216 pbc="T T T"
Se       7.64309832      11.05410501       7.39263486      -0.00033820      -0.00013060       0.00033341
Se       9.77525653      10.71741616       8.35114704       0.00028734       0.00050469      -0.00015110
Se      11.15799819      12.58962797       7.94949344       0.00000212      -0.00058248       0.00005402
Se      10.04880484       6.95690879       8.02041738       0.00046693      -0.00003915       0.00014766
Se       6.11757077      11.81039334       9.06947802       0.00007081       0.00035183       0.00049645
Se      13.50472104       7.88118446       9.45891059      -0.00021393      -0.00028153       0.00025303
Se       8.50735299       6.67120371       9.78851579       0.00062367      -0.00022208       0.00025406
Se      12.15572380       6.10790914       8.67199226      -0.00053272       0.00047293      -0.00024909
Se      11.40029832      12.52495481      11.60072859       0.00015248       0.00025192       0.00018029
Se      11.16502457      14.00919887       9.87188100      -0.00020084      -0.00001005      -0.00024710
Se       9.28357949       7.82533921      11.69890026      -0.00010566       0.00011785      -0.00011469
Se       6.57455830      10.42693777      10.83714502       0.00033097      -0.00017515      -0.00088242
Se       8.26905530      13.46889504      10.28125110       0.00008377       0.00006065      -0.00031324
Se      11.29910913       6.84227695      12.44393924      -0.00022910       0.00007054       0.00007709
Se      13.12128385       8.18731912      11.77028266      -0.00000919      -0.00011856      -0.00036806
Se       8.80341831      11.75318337      11.62013649      -0.00038845      -0.00027082       0.00052970
17
Lattice="21.20741984047928 0.0 0.0 0.0 21.20741984047928 0.0 0.0 0.0 21.20741984047928" Properties=species:S:1:pos:R:3:forces:R:3 config_type=qcd dft_energy=-58.36715699 gap_energy=-58.24964968280446 relaxed_gap_energy=-58.3828345884841 energy=-58.3828345884841 free_energy=-58.3828345884841 pbc="T T T"
Se      13.29756115      14.43304009       7.36727372       0.00026465       0.00094587       0.00004067
Se      11.88984422      10.74904513       6.44280678      -0.00040005      -0.00042771      -0.00017353
Se      10.01807748      11.62236166       7.59094685       0.00048105      -0.00007932      -0.00023892
Se      14.83835472      12.73355743       7.93334822      -0.00031370      -0.00054855       0.00008524
Se      11.74949476      14.70431847       9.13175427      -0.00012807      -0.00010519      -0.00030360
Se      13.73492239      10.64428440       7.91531727       0.00002260       0.00025744       0.00004494
Se      10.73374741      12.62453291       9.60758689       0.00007353      -0.00004253       0.00054521
Se      12.85888109       9.27507987      11.59554924      -0.00001645       0.00049124       0.00058440
Se      13.66455144      10.92617163      13.08189046       0.00036068      -0.00043111      -0.00012188
Se       9.05169773      13.58641446      13.98677196      -0.00044128       0.00022724       0.00042467
Se      12.60385543      12.98597456      12.61723859       0.00023652      -0.00077791       0.00038992
Se       8.38605623      11.33568430      13.71312213       0.00091530      -0.00030867       0.00017599
Se      11.15287101       7.65643821      14.65338086      -0.00020124       0.00046247      -0.00038823
Se      11.35569053      13.66438825      14.50531681      -0.00035077       0.00006253      -0.00073590
Se      10.83268703       8.39090597      12.43027633      -0.00052075       0.00017612      -0.00006737
Se      10.71180253       9.44038332      16.13897030       0.00015594       0.00086169      -0.00032780
Se       8.50899809      10.22415944      15.79480760      -0.00013796      -0.00076360       0.00006621
17