3
Lattice="17.35040634661011 0.0 0.0 0.0 17.35040634661011 0.0 0.0 0.0 17.35040634661011" Properties=species:S:1:pos:R:3:forces:R:3 config_type=qcd dft_energy=-10.44720432 gap_energy=-10.823639821530735 relaxed_gap_energy=-10.8420638022957 energy=-10.8420638022957 free_energy=-10.8420638022957 pbc="T T T"
Si       7.47857203       8.06882882       8.84005043      -0.00056925      -0.00011365       0.00004602
Si       9.81536229       7.95418450       8.75882696       0.00049324      -0.00004796      -0.00001274
Si       8.73167519      10.00259619       8.42673213       0.00007601       0.00016161      -0.00003328
4
Lattice="17.81751935348048 0.0 0.0 0.0 17.81751935348048 0.0 0.0 0.0 17.81751935348048" Properties=species:S:1:pos:R:3:forces:R:3 config_type=qcd dft_energy=-15.90356419 gap_energy=-15.50951303882541 relaxed_gap_energy=-16.272264004614065 energy=-16.272264004614065 free_energy=-16.272264004614065 pbc="T T T"
Si       8.03107534       8.01440336       9.14171860      -0.00017409       0.00006335      -0.00036644
Si       8.96694265       7.27263808       7.01421291       0.00024465       0.00005509      -0.00005709
Si       6.70049163       6.62389385       7.64225473      -0.00012976       0.00020154       0.00007941
Si       7.18613426       8.93991798       7.04839082       0.00005920      -0.00031998       0.00034412
5
Lattice="15.15 0.0 0.0 0.0 15.15 0.0 0.0 0.0 15.15" Properties=species:S:1:pos:R:3:forces:R:3 config_type=qcd dft_energy=-21.09117937 gap_energy=-20.76347379370341 relaxed_gap_energy=-20.772916628313084 energy=-20.772916628313084 free_energy=-20.772916628313084 pbc="T T T"
Si       8.24111395       9.24326472       7.57168504      -0.00006327       0.00003599      -0.00031755
Si       7.57420032       7.57219830       6.08136538       0.00013408       0.00026598      -0.00016340
Si       5.79694671       7.31774025       7.57629103       0.00035564      -0.00005060       0.00024643
Si       7.57565783       7.57765982       9.06863471      -0.00025009      -0.00019484       0.00016623
Si       8.68708119       6.16413690       7.57702383      -0.00017636      -0.00005652       0.00006829
6
Lattice="18.05953314731273 0.0 0.0 0.0 18.05953314731273 0.0 0.0 0.0 18.05953314731273" Properties=species:S:1:pos:R:3:forces:R:3 config_type=qcd dft_energy=-26.46284193 gap_energy=-25.47594261982457 relaxed_gap_energy=-26.87696676232625 energy=-26.87696676232625 free_energy=-26.87696676232625 pbc="T T T"
Si       9.00029444      10.50698885      10.03405612       0.00017983       0.00033096       0.00021234
Si      10.53340515       9.59244217       8.24617597       0.00031110       0.00032213      -0.00039913
Si       9.99411436       8.19739983      10.28235256       0.00007545      -0.00014563       0.00014668
Si       9.05914208       7.55256515       8.02544396       0.00019853      -0.00031969      -0.00022563
Si       7.52619625       8.46703148       9.81340953      -0.00080632      -0.00012425       0.00022988
Si       8.06544715       9.86217196       7.77716130       0.00004142      -0.00006351       0.00003586
7
Lattice="17.04754144866639 0.0 0.0 0.0 17.04754144866639 0.0 0.0 0.0 17.04754144866639" Properties=species:S:1:pos:R:3:forces:R:3 config_type=qcd dft_energy=-31.78215279 gap_energy=-31.188593403464363 relaxed_gap_energy=-31.378896952260146 energy=-31.378896952260146 free_energy=-31.378896952260146 pbc="T T T"
Si       8.61878981       6.48473316       8.52337604       0.00000251      -0.00016812      -0.00026388
Si      10.49236761       7.98404370       8.52299965       0.00039526      -0.00010883       0.00009583
Si       8.52417038       8.52342617       9.83950751      -0.00019962      -0.00017396      -0.00060413
Si       6.61389174       7.80329511       8.52387827      -0.00005614      -0.00003934       0.00039832
Si       8.52340520       8.52414004       7.20804090      -0.00019640      -0.00017903       0.00050711
Si       7.24837295      10.11751642       8.52479079      -0.00022578       0.00027351      -0.00030967
Si       9.64539738      10.22924047       8.52380192       0.00028016       0.00039578       0.00017642
8
Lattice="18.67784597069638 0.0 0.0 0.0 18.67784597069638 0.0 0.0 0.0 18.67784597069638" Properties=species:S:1:pos:R:3:forces:R:3 config_type=qcd dft_energy=-35.74471615 gap_energy=-35.0208905932996 relaxed_gap_energy=-36.33528955635306 energy=-36.33528955635306 free_energy=-36.33528955635306 pbc="T T T"
Si      10.42525505       7.93966703       8.93597146      -0.00012011      -0.00010553       0.00024621
Si      11.18544795       9.33873489      10.73285396      -0.00024905       0.00014738       0.00006190
Si       8.84732720       9.33906919      11.59983837       0.00029356      -0.00011641      -0.00021627
Si       9.83048842       9.33902227       7.07800939      -0.00021540       0.00009687       0.00016553
Si       8.25252173      10.73821791       9.74165261       0.00019660       0.00002447      -0.00002558
Si       7.49238423       9.33879017       7.94501091       0.00016232       0.00002847      -0.00004997
Si       8.25265048       7.93968200       9.74182476       0.00008279      -0.00000692      -0.00014128
Si      10.42530883      10.73820041       8.93622244      -0.00015071      -0.00006834      -0.00004053
9
Lattice="18.69771593220143 0.0 0.0 0.0 18.69771593220143 0.0 0.0 0.0 18.69771593220143" Properties=species:S:1:pos:R:3:forces:R:3 config_type=qcd dft_energy=-41.06666563 gap_energy=-40.87166295960349 relaxed_gap_energy=-41.22460842423987 energy=-41.22460842423987 free_energy=-41.22460842423987 pbc="T T T"
Si       9.41341918       7.02090428      10.23054968       0.00007287      -0.00039612      -0.00004369
Si      11.82281570       9.57673295       9.18229341      -0.00044318      -0.00030874       0.00037380
Si      10.29066624       8.02193314       8.26781400      -0.00026115       0.00068847      -0.00002033
Si      10.37428358       9.04805512      10.98446581       0.00070270       0.00034325      -0.00044414
Si       7.80500831       8.93137938      10.23070560      -0.00042921      -0.00014958      -0.00003645
Si       9.81532861      10.65773573       8.16322709      -0.00011792      -0.00047354       0.00023288
Si       7.36180569      10.99270371       8.78937154       0.00020109      -0.00010136      -0.00030566
Si       9.18010063      11.09148256      10.55246612       0.00018407       0.00052032       0.00034822
Si       8.07629375       8.79879482       7.73882844       0.00009073      -0.00012271      -0.00010462
10
Lattice="17.18787769068163 0.0 0.0 0.0 17.18787769068163 0.0 0.0 0.0 17.18787769068163" Properties=species:S:1:pos:R:3:forces:R:3 config_type=qcd dft_energy=-46.69808936 gap_energy=-46.38802016978508 relaxed_gap_energy=-46.564825554387255 energy=-46.564825554387255 free_energy=-46.564825554387255 pbc="T T T"
Si       7.58280955       8.10646277       8.20734524       0.00036784       0.00038246       0.00029091
Si      10.55894984      10.70242829       8.16763142       0.00015535      -0.00022236       0.00002953
Si       9.69933563       8.64770848       7.20439649      -0.00030848       0.00008078       0.00009500
Si       8.17637700      10.40334119       7.81861013      -0.00014153      -0.00065005      -0.00014629
Si       9.56175114       6.84316005       8.82103279      -0.00017696       0.00023687      -0.00017909
Si       9.08922967      10.92393215      10.02582228      -0.00007318       0.00011541       0.00023712
Si      11.07575826       8.63397005       9.22464814       0.00011122       0.00020501       0.00019205
Si       8.31504195       7.92798428      10.53306138      -0.00013258       0.00021187      -0.00020115
Si       7.00274590       9.79295634       9.85294124       0.00020385      -0.00020211      -0.00010432
Si      10.15381463       9.23387002      11.36032448      -0.00000553      -0.00015789      -0.00021376
11
Lattice="17.019 0.0 0.0 0.0 17.019 0.0 0.0 0.0 17.019" Properties=species:S:1:pos:R:3:forces:R:3 config_type=qcd dft_energy=-50.69943604 gap_energy=-50.110215293750514 relaxed_gap_energy=-51.72670180162453 energy=-51.72670180162453 free_energy=-51.72670180162453 pbc="T T T"
Si       9.77086961      10.94300368       8.50928581       0.00007868      -0.00007215       0.00005216
Si       8.85561510       9.67274362       6.74912387       0.00006015       0.00019350      -0.00032337
Si       8.85591991       9.67287030      10.26971925       0.00007906       0.00011543       0.00034222
Si       7.39023105      10.50274087       8.50952049       0.00034970       0.00024106       0.00001844
Si       6.81278588       8.50937963       9.71830460       0.00002612      -0.00004430      -0.00002220
Si       7.39086384       6.51616103       8.50967905      -0.00040209      -0.00048300      -0.00006977
Si       8.85589445       7.34619381       6.74903250      -0.00000136      -0.00027367       0.00039896
Si       6.81256853       8.50930461       7.30099949       0.00007765      -0.00013428       0.00001124
Si       8.85619096       7.34629767      10.26999804       0.00007007      -0.00009121      -0.00037263
Si      10.23208696       8.50949231       8.50936115      -0.00045864       0.00070140      -0.00003575
Si       9.77147371       6.07631247       8.50947572       0.00012066      -0.00015278       0.00000071
11
Lattice="18.029 0.0 0.0 0.0 18.029 0.0 0.0 0.0 18.029" Properties=species:S:1:pos:R:3:forces:R:3 config_type=qcd dft_energy=-50.68296976 gap_energy=-50.65837998155615 relaxed_gap_energy=-51.100678283906234 energy=-51.100678283906234 free_energy=-51.100678283906234 pbc="T T T"
Si       9.99016016       7.77594904      11.03840003       0.00003878      -0.00012276      -0.00065776
Si       9.40693319      10.22334364      10.78196161       0.00031418       0.00011718      -0.00030704
Si      11.11090674      10.53332919       9.00798224      -0.00054820       0.00037626      -0.00001148
Si      11.13589382       8.17724796       9.01756521       0.00070639      -0.00015263       0.00002699
Si       9.40644389      10.20874168       7.23714081       0.00033063       0.00011229       0.00020490
Si       5.93339228       9.60767115       9.01252871      -0.00056820      -0.00001682       0.00000643
Si       7.98066771      10.74195589       9.00757110       0.00043165       0.00083741       0.00004835
Si       7.64584813       8.57116466       7.75908453      -0.00021408      -0.00031779      -0.00028209
Si       7.64621812       8.58148533      10.27394845      -0.00021435      -0.00031936       0.00026566
Si       8.91348834       6.97926576       9.02286904      -0.00029859      -0.00045259      -0.00000925
Si       9.98954760       7.75934572       7.00044828       0.00002178      -0.00006119       0.00071529
12
Lattice="19.09307035506297 0.0 0.0 0.0 19.09307035506297 0.0 0.0 0.0 19.09307035506297" Properties=species:S:1:pos:R:3:forces:R:3 config_type=qcd dft_energy=-55.62587641 gap_energy=-54.54740255023268 relaxed_gap_energy=-55.97667536400838 energy=-55.97667536400838 free_energy=-55.97667536400838 pbc="T T T"
Si      10.75485923      11.20382332      10.23161574       0.00047135       0.00067879       0.00012484
Si       8.64292023      11.01189791       9.19204085      -0.00021328       0.00020643      -0.00036282
Si      11.03175167       9.21508860       8.98818171      -0.00012306       0.00015429      -0.00002574
Si       9.44497467       9.38017893      10.95923395       0.00023261      -0.00017384      -0.00033598
Si       7.15594518       9.32993223       9.98309168       0.00012119       0.00031233       0.00072305
Si       7.97733263       7.41373347      11.09404930      -0.00004087      -0.00084278      -0.00020720
Si       7.44640557       9.59776791       7.63603517       0.00017289      -0.00020539      -0.00037117
Si       9.91270879       7.25670972       9.74814592      -0.00059710      -0.00038193       0.00003182
Si       9.76050437      10.22930571       7.16320529      -0.00020202      -0.00012980       0.00029331
Si       7.75255773       7.65558387       6.32765782       0.00036997      -0.00035886      -0.00043336
Si       7.67562407       7.28836992       8.65784606      -0.00001162       0.00054031       0.00039301
Si       9.83517323       7.80082978       7.43216874      -0.00018006       0.00020044       0.00017024
13
Lattice="20.07671456064209 0.0 0.0 0.0 20.07671456064209 0.0 0.0 0.0 20.07671456064209" Properties=species:S:1:pos:R:3:forces:R:3 config_type=qcd dft_energy=-60.10305426 gap_energy=-60.34033478702368 relaxed_gap_energy=-60.80465601313627 energy=-60.80465601313627 free_energy=-60.80465601313627 pbc="T T T"
Si      10.22502872       7.47027357       6.55151117      -0.00003094       0.00017302      -0.00043330
Si       6.76139310       9.56117640       7.25337851      -0.00015875      -0.00014197       0.00006699
Si       8.14133175      11.48952094       7.25640253       0.00057120      -0.00044843      -0.00022289
Si       9.37433193       9.43556470       7.60319381      -0.00050598       0.00013768       0.00014028
Si       7.88607840       7.47662705       6.92275902       0.00004584      -0.00008820      -0.00004546
Si      10.25145993       5.77732150       8.44121675      -0.00026537       0.00015184       0.00032386
Si       7.71799157       5.79480753       8.58185498      -0.00020118      -0.00033735      -0.00068262
Si       7.63990930      11.02632946       9.55197119      -0.00029733       0.00080998      -0.00047256
Si      10.89687991       8.07022313       8.96913967       0.00039749       0.00004558       0.00042846
Si       7.23693988       8.00722856       9.33322039      -0.00016692       0.00015479      -0.00002550
Si       5.60212554       9.79180668       9.30907083       0.00051534      -0.00043853       0.00064341
Si       9.21497157       9.32227236      10.08807436      -0.00004670       0.00005294       0.00040177
Si       9.23160248       6.95689221      10.31825087       0.00014329      -0.00007136      -0.00012244
14
Lattice="17.77 0.0 0.0 0.0 17.77 0.0 0.0 0.0 17.77" Properties=species:S:1:pos:R:3:forces:R:3 config_type=qcd dft_energy=-65.31270302 gap_energy=-64.64429977647553 relaxed_gap_energy=-65.15958400985603 energy=-65.15958400985603 free_energy=-65.15958400985603 pbc="T T T"
Si       8.88428872      10.03581816       7.64864552      -0.00000988      -0.00016714       0.00073399
Si       8.88549939       7.73368336       7.64910884       0.00000739       0.00016841       0.00073969
Si       6.65086969      10.95704867       7.69600604       0.00041178       0.00015682      -0.00019742
Si       7.70263898      10.72012843       9.81073762       0.00016279      -0.00052346      -0.00004240
Si       5.90601230       8.88339369       8.64561166      -0.00034625       0.00001007      -0.00023427
Si       6.61375209       8.88421345      10.88648399       0.00069101       0.00000030       0.00002631
Si       7.70455084       7.04900009       9.81148230       0.00019526       0.00054623      -0.00006588
Si       6.65305253       6.81014505       7.69684061       0.00036507      -0.00019659      -0.00022432
Si      11.11674332      10.95937652       7.69561865      -0.00036605       0.00018214      -0.00020958
Si      10.06560746      10.72137361       9.81053894      -0.00017829      -0.00055512      -0.00006962
Si      11.15659238       8.88659236      10.88609380      -0.00069117       0.00001310       0.00002169
Si      10.06752030       7.05024611       9.81127437      -0.00017618       0.00051362      -0.00003855
Si      11.11892617       6.81247245       7.69645916      -0.00041216      -0.00017187      -0.00020977
Si      11.86394581       8.88650805       8.64509848       0.00034668       0.00002348      -0.00022986
14
Lattice="20.24070559871364 0.0 0.0 0.0 20.24070559871364 0.0 0.0 0.0 20.24070559871364" Properties=species:S:1:pos:R:3:forces:R:3 config_type=qcd dft_energy=-65.28451399 gap_energy=-64.79017742914114 relaxed_gap_energy=-65.2541610010124 energy=-65.2541610010124 free_energy=-65.2541610010124 pbc="T T T"
Si       9.07480247       8.60753932       5.72023843       0.00013545       0.00002372      -0.00002027
Si       6.58221012       8.70369944       6.20345195      -0.00029463       0.00015823      -0.00021731
Si       9.95572087       9.24653546       7.84419584      -0.00000667      -0.00033061       0.00011173
Si       9.06206957       6.86513425       7.30684460       0.00035445       0.00024482       0.00074445
Si       7.90943084      10.40671008       7.25003951      -0.00018816      -0.00026773       0.00021853
Si       6.73923419       6.56732827       7.56985856      -0.00025190       0.00006791      -0.00011682
Si       6.24762905       8.95514995       8.56601278       0.00029233       0.00000298      -0.00015518
Si       7.82333686       7.38384297       9.53284980       0.00023561      -0.00002888      -0.00010309
Si      11.73449374       8.97635658       9.49060707      -0.00033923      -0.00017178      -0.00021535
Si       6.60103819      11.24706245       9.03255061      -0.00056880       0.00058990       0.00000125
Si      10.46225494       7.02769316       9.25481361       0.00009579      -0.00010039       0.00006462
Si       8.33712411       9.78750741       9.61501352       0.00013141      -0.00050644      -0.00031602
Si       9.40165099       6.93843371      11.33781044      -0.00005352       0.00001189      -0.00051635
Si      10.08721108       9.30521397      11.29392030       0.00045787       0.00030637       0.00051983
15
Lattice="16.1625887318441 0.0 0.0 0.0 16.1625887318441 0.0 0.0 0.0 16.1625887318441" Properties=species:S:1:pos:R:3:forces:R:3 config_type=qcd dft_energy=-70.41699956 gap_energy=-68.91815069469882 relaxed_gap_energy=-69.77927161001705 energy=-69.77927161001705 free_energy=-69.77927161001705 pbc="T T T"
Si       9.99766332       9.55231939       5.57766917      -0.00006386      -0.00014041       0.00003987
Si       9.52789795       8.34955758       8.37216440       0.00005202      -0.00066540       0.00006017
Si       7.65591678      10.29689848       5.64570558       0.00032938       0.00071063      -0.00037153
Si      10.08619671       7.13885359       6.37870030       0.00033807       0.00015111       0.00022689
Si       6.11340072       8.30265652       6.16774914       0.00015432      -0.00031239      -0.00039912
Si       9.16786362      10.63113334       7.72744181      -0.00029620      -0.00028960       0.00002472
Si       8.25491166       8.02034756       4.76614899      -0.00079472       0.00020272       0.00039551
Si       7.78834031       6.93369277       7.23133505       0.00005590      -0.00006827       0.00083406
Si       7.18438719       9.22975897       8.11838512       0.00047707       0.00004006      -0.00079388
Si      10.04501497       7.63611518      10.57136520      -0.00023547      -0.00014243      -0.00047156
Si       5.98815499       9.13653043      10.16399492      -0.00012505       0.00031000       0.00081768
Si       7.82913591       8.12177659      11.26733898       0.00002977       0.00021729      -0.00001300
Si       7.02855092       5.18003956       8.63609500       0.00070656       0.00011544      -0.00017524
Si       8.40649179       5.92639627      10.41958645       0.00000004       0.00029237      -0.00021075
Si       6.14548862       6.76333926      10.17573540      -0.00062783      -0.00042111       0.00003618
16
Lattice="18.598032647 0.0 0.0 0.0 18.598032647 0.0 0.0 0.0 18.598032647" Properties=species:S:1:pos:R:3:forces:R:3 config_type=qcd dft_energy=-74.72518364 gap_energy=-74.21708425893357 relaxed_gap_energy=-75.20343480761957 energy=-75.20343480761957 free_energy=-75.20343480761957 pbc="T T T"
Si       7.24515531      11.83733968       9.45009024       0.00012114      -0.00056962       0.00029601
Si       7.08967200       8.06266176       7.42085448       0.00006037       0.00028154      -0.00002462
Si       7.43784493       9.50463747       9.32996682      -0.00038378       0.00075203       0.00005915
Si       9.27375130      11.51574549      10.67451133      -0.00016092       0.00017267      -0.00044092
Si       9.24547600      11.64292235       8.15498702       0.00050585      -0.00030288      -0.00030008
Si       9.17789359       9.26705578       7.48219290      -0.00052191      -0.00044576       0.00005506
Si      11.27312823      10.37064441       7.84468075       0.00042378       0.00019508       0.00043686
Si       7.21151954       6.22486367       9.16709653      -0.00028089       0.00049827       0.00026563
Si      11.30623742      10.22088335      10.80941300       0.00022347      -0.00004945      -0.00011678
Si      12.86132242       9.25266096       9.25668945      -0.00053454       0.00030095       0.00045225
Si      11.18727453      12.24565615       9.42675630      -0.00017462      -0.00023807       0.00002663
Si      10.70059841       8.23918208       9.23011330       0.00033354       0.00007648      -0.00063015
Si       9.22645109       6.65759465      10.37865113       0.00005987       0.00079867      -0.00036099
Si       7.13042509       7.87794764      11.09142270      -0.00006384      -0.00073112       0.00037889
Si       9.21801599       9.08422645      11.10566621       0.00006910      -0.00039974      -0.00018531
Si       9.19949534       6.78023930       7.96116904       0.00032337      -0.00033906       0.00008836
17
Lattice="19.277367045 0.0 0.0 0.0 19.277367045 0.0 0.0 0.0 19.277367045" Properties=species:S:1:pos:R:3:forces:R:3 config_type=qcd dft_energy=-79.69869813 gap_energy=-79.03207198194715 relaxed_gap_energy=-79.86624052492218 energy=-79.86624052492218 free_energy=-79.86624052492218 pbc="T T T"
Si       8.16829830       8.49597699      11.10479608       0.00026495       0.00000964      -0.00024251
Si      11.81159595      10.70703632      11.71456700       0.00013200       0.00028983      -0.00046834
Si       6.06982439      11.73888716       9.59602275      -0.00002104       0.00019607      -0.00013566
Si       6.59248502      10.21084696      11.58959252      -0.00023583      -0.00011681       0.00009730
Si      10.47234944       8.96934668      10.74655283       0.00002212       0.00011360       0.00008639
Si       8.25099380      10.67578359       9.71049016       0.00008195       0.00003254       0.00037482
Si       6.80464791      10.23870952       7.65555269       0.00044371       0.00023433      -0.00006182
Si      11.52363036      10.84059044       7.65480601      -0.00026132      -0.00000892      -0.00020966
Si      10.50855621      11.33480548       9.77588897      -0.00006499      -0.00011056       0.00000176
Si       8.32403997       8.54003335       8.34150994      -0.00017370      -0.00026741      -0.00022167
Si       5.49066866       9.23392690       9.54955515      -0.00026420      -0.00008437       0.00037550
Si      12.05894289       7.43723389       9.80919215      -0.00015200      -0.00024014       0.00044207
Si       6.88503080       7.15258951       9.62842116       0.00016135      -0.00002430      -0.00023016
Si      13.63726508       9.19373837      10.77321707       0.00001338      -0.00028988       0.00011966
Si      13.36193200       9.13976510       8.34706084       0.00045966       0.00012945      -0.00030439
Si      10.69692116       8.67970766       8.26972266      -0.00039005      -0.00014910      -0.00002241
Si      13.20043793      11.26864198       9.59067191      -0.00001598       0.00028602       0.00039912
18
Lattice="22.4597031 0.0 0.0 0.0 22.4597031 0.0 0.0 0.0 22.4597031" Properties=species:S:1:pos:R:3:forces:R:3 config_type=qcd dft_energy=-84.58210653 gap_energy=-84.28839603866196 relaxed_gap_energy=-85.1484987597431 energy=-85.1484987597431 free_energy=-85.1484987597431 pbc="T T T"
Si      12.53166643       9.67281604       9.74124531      -0.00038197      -0.00000877      -0.00025169
Si       7.92134932      11.32078698      13.05593011       0.00044091      -0.00037657       0.00013547
Si       9.97248055       9.68141312      12.76603384      -0.00023198       0.00054666       0.00036940
Si      10.07719192       9.98826230      10.35119030      -0.00010532       0.00009044      -0.00047538
Si       9.70988336      12.41474310       9.81382407       0.00011647      -0.00010810       0.00039830
Si      10.35183041      12.05566324      12.18742740      -0.00030096       0.00010106       0.00032982
Si       8.48094597      13.38183764      11.57082153      -0.00021782      -0.00040446      -0.00016619
Si       6.67438381      11.70091266      10.96000244       0.00032155       0.00006591      -0.00028141
Si      12.41819920      10.04987572      12.14768996       0.00051728      -0.00012155      -0.00026873
Si      14.29160453      10.88346112      13.32059723      -0.00045988      -0.00027264       0.00046053
Si      14.80110974       9.57672518      11.11430694       0.00039066      -0.00000210       0.00023592
Si      12.08391476      12.05147024      10.24644880       0.00001892      -0.00009452      -0.00021710
Si      12.71395805      12.50085130      12.60784796      -0.00038605       0.00017459      -0.00027862
Si       7.70739037       9.47768945      11.39775793       0.00015815       0.00032332      -0.00005052
Si       8.18126920      10.72986269       9.15214495      -0.00050120       0.00006410       0.00029458
Si      14.53486358      11.36067024       9.39997925       0.00020965       0.00001042      -0.00032026
Si      15.76992353      11.84108019      11.48245400       0.00025355       0.00020323       0.00008591
Si      13.91536318      13.44920666      10.82162587       0.00015802      -0.00019102      -0.00000003
19
Lattice="20.50744247 0.0 0.0 0.0 20.50744247 0.0 0.0 0.0 20.50744247" Properties=species:S:1:pos:R:3:forces:R:3 config_type=qcd dft_energy=-89.51255837 gap_energy=-88.65730130157179 relaxed_gap_energy=-89.43874726019702 energy=-89.43874726019702 free_energy=-89.43874726019702 pbc="T T T"
Si      13.31589504       7.32886579      10.28061974      -0.00027948       0.00000579      -0.00023555
Si       5.81648104       9.06827141      10.28819854      -0.00036161      -0.00061455      -0.00002237
Si      12.12218784      12.56582337      10.21400696       0.00064493       0.00046650       0.00057110
Si       6.18597872      11.14806952      11.48968386      -0.00060002       0.00035712      -0.00037544
Si       8.83939087      10.98237830       8.62977185       0.00018766       0.00061185      -0.00052914
Si       7.52405383       8.99118492       8.39093693      -0.00001340      -0.00026896      -0.00020628
Si      13.40445153      11.74384570      12.01492805       0.00005285      -0.00000650      -0.00024119
Si      11.34025892       8.59024812      10.27134491      -0.00000285      -0.00018582       0.00002521
Si       9.01267532       9.03535784      10.27507564      -0.00086568      -0.00026503       0.00009589
Si       7.94757141      12.57215733      10.23305168       0.00004122       0.00005067      -0.00008074
Si      13.22354172       9.06174042       8.53190623       0.00032236       0.00049526      -0.00016903
Si       7.54014020       9.04040183      12.17214236       0.00023304      -0.00000561       0.00043308
Si      11.18940359      10.70650964      11.46522456       0.00007927      -0.00033743      -0.00020437
Si      13.38965432      11.69493766       8.42596739       0.00005695      -0.00034001       0.00002260
Si      11.17929896      10.67332583       9.02188737      -0.00028384      -0.00004042       0.00016274
Si      14.52359545      10.36764590      10.23424308       0.00000801      -0.00025438      -0.00009241
Si      13.23767566       9.10874098      11.98205731       0.00040392       0.00038364       0.00041043
Si       6.17533151      11.11602275       9.02941904      -0.00003292      -0.00019629       0.00020573
Si       8.85311751      11.02517617      11.87023795       0.00040960       0.00014418       0.00022975
20
Lattice="16.81867541775677 0.0 0.0 0.0 16.81867541775677 0.0 0.0 0.0 16.81867541775677" Properties=species:S:1:pos:R:3:forces:R:3 config_type=qcd dft_energy=-94.13808217 gap_energy=-93.5202513507312 relaxed_gap_energy=-94.32176332460824 energy=-94.32176332460824 free_energy=-94.32176332460824 pbc="T T T"
Si       7.96518649      11.35803056       8.59245898      -0.00003316      -0.00024197       0.00025719
Si       9.85031996      11.57145119      10.25078801      -0.00024640      -0.00077435      -0.00053334
Si      10.36994621      11.87998989       7.96324464       0.00014728      -0.00017314       0.00029410
Si       7.80157814       9.99718686      10.49238459      -0.00007361       0.00038000      -0.00079888
Si       8.99182623      10.32591759       6.44290204       0.00066293       0.00014982       0.00004587
Si      11.71989997      10.13797586       9.18791962      -0.00036350       0.00041966       0.00028181
Si       7.93672444       8.85559220       8.37752357      -0.00004511       0.00026072      -0.00061390
Si       9.82225917       8.82118815      10.16779084       0.00048819       0.00082683       0.00011651
Si      10.51647864       8.86724651       7.57928686       0.00029178       0.00019675       0.00030042
Si       6.22612359       8.29223026       9.97437286      -0.00031004      -0.00004436      -0.00006776
Si       5.50198411       8.69078472       7.78215052       0.00052682      -0.00001092       0.00034389
Si       7.22834654       8.41444576       5.86304021      -0.00031251      -0.00000700      -0.00003369
Si       7.68490786       6.50750124       9.46587478      -0.00010554      -0.00023527      -0.00021953
Si       9.53008746       6.57192092      11.05277701       0.00022723      -0.00024186       0.00091133
Si      10.22127314       6.60645420       8.83771684      -0.00016325      -0.00035155      -0.00048251
Si       8.47303264       6.65355437       6.90867983      -0.00074342       0.00055212      -0.00011131