3
Lattice="30.0 0.0 0.0 0.0 30.0 0.0 0.0 0.0 30.0" Properties=species:S:1:pos:R:3:forces:R:3 config_type=qcd dft_energy=-7.6536097 gap_energy=-8.132520029684166 relaxed_gap_energy=-8.135638103436882 energy=-8.135638103436882 free_energy=-8.135638103436882 pbc="T T T"
Sn       7.42042838       8.13170302       9.09072181       0.00047937       0.00022267      -0.00006229
Sn      10.26308869       7.99224586       8.99188895      -0.00045492       0.00026200      -0.00002860
Sn       8.94481890      10.48400557       8.58793092      -0.00002444      -0.00048467       0.00009089
4
Lattice="16.60752447755221 0.0 0.0 0.0 16.60752447755221 0.0 0.0 0.0 16.60752447755221" Properties=species:S:1:pos:R:3:forces:R:3 config_type=qcd dft_energy=-11.85119395 gap_energy=-11.391744889828052 relaxed_gap_energy=-11.408606891345377 energy=-11.408606891345377 free_energy=-11.408606891345377 pbc="T T T"
Sn       9.46225804       9.19601413       7.97261955      -0.00042917       0.00027358       0.00040064
Sn       7.15638797       7.40660956       8.65853923      -0.00052286      -0.00014122       0.00037323
Sn       9.51744846       6.36364981       7.32281310       0.00041080      -0.00012271      -0.00037399
Sn       7.07895448      10.24877545       9.26107707       0.00054123      -0.00000965      -0.00039988
5
Lattice="16.33391677386552 0.0 0.0 0.0 16.33391677386552 0.0 0.0 0.0 16.33391677386552" Properties=species:S:1:pos:R:3:forces:R:3 config_type=qcd dft_energy=-15.71030566 gap_energy=-14.813783884297454 relaxed_gap_energy=-16.243570126411203 energy=-16.243570126411203 free_energy=-16.243570126411203 pbc="T T T"
Sn       8.85583458       9.36499886       7.07215740       0.00010546       0.00038426      -0.00081389
Sn       7.13006717       7.05862439       6.30179860      -0.00010878      -0.00020488      -0.00039543
Sn       9.06430772       6.69636845       8.54198581       0.00034858      -0.00059887       0.00009617
Sn       6.58074279       8.43944874       8.88679938      -0.00059623       0.00020004       0.00031748
Sn       9.20383967       9.27535148      10.03205073       0.00025097       0.00021946       0.00079566
6
Lattice="16.60132667945682 0.0 0.0 0.0 16.60132667945682 0.0 0.0 0.0 16.60132667945682" Properties=species:S:1:pos:R:3:forces:R:3 config_type=qcd dft_energy=-19.91389737 gap_energy=-19.66547682260706 relaxed_gap_energy=-20.054491000394236 energy=-20.054491000394236 free_energy=-20.054491000394236 pbc="T T T"
Sn       8.88961690      10.08245544       9.36039077      -0.00019680      -0.00065681      -0.00032848
Sn       9.33679860       7.09376176       9.75396053       0.00036341      -0.00018537       0.00053981
Sn      10.09624702       8.41302180       7.11381130      -0.00076935       0.00008216       0.00049809
Sn       7.71172975       6.51889110       7.24096088      -0.00000984       0.00045654       0.00005628
Sn       7.26451171       9.50757853       6.84733940      -0.00017714       0.00011119      -0.00021608
Sn       6.50507606       8.18827140       9.48751715       0.00078973       0.00019229      -0.00054961
7
Lattice="17.49223890502727 0.0 0.0 0.0 17.49223890502727 0.0 0.0 0.0 17.49223890502727" Properties=species:S:1:pos:R:3:forces:R:3 config_type=qcd dft_energy=-24.06109588 gap_energy=-24.025317829190286 relaxed_gap_energy=-24.051468581051424 energy=-24.051468581051424 free_energy=-24.051468581051424 pbc="T T T"
Sn       9.91032421       7.66092388       9.10976774      -0.00033168      -0.00006998      -0.00048027
Sn       7.02466859       6.84776696       8.59123647       0.00072360       0.00028649      -0.00015249
Sn       8.71446994       7.90006604       6.32250247      -0.00060610      -0.00004891       0.00052227
Sn      10.44770301      10.12155342       7.40307563      -0.00015850       0.00016815       0.00010105
Sn       7.71431030       8.41861722      11.07406705      -0.00015329       0.00056113      -0.00028319
Sn       9.82950784      10.44253927      10.33951456       0.00021813      -0.00006355       0.00067523
Sn       7.58185229       9.83136939       8.38267224       0.00030785      -0.00083333      -0.00038260
8
Lattice="19.72577202594484 0.0 0.0 0.0 19.72577202594484 0.0 0.0 0.0 19.72577202594484" Properties=species:S:1:pos:R:3:forces:R:3 config_type=qcd dft_energy=-26.98086168 gap_energy=-26.75058234210773 relaxed_gap_energy=-27.372381722699668 energy=-27.372381722699668 free_energy=-27.372381722699668 pbc="T T T"
Sn       7.23393468       9.86991486       8.92859449      -0.00066144      -0.00048514       0.00039589
Sn       8.60431142       9.71888267      11.69490131       0.00003196       0.00003475       0.00001244
Sn       9.98640511      10.72340604       7.81222670       0.00033520       0.00025212      -0.00031764
Sn      12.35337504       8.97817793       8.82249352       0.00074143       0.00006226      -0.00060653
Sn       8.57284972      12.33025946      10.04208928      -0.00010532       0.00054977       0.00005250
Sn      11.34082949       8.24209031      11.66779636      -0.00079828       0.00034574       0.00011049
Sn       9.55343646       7.95409625       9.25901225       0.00010536      -0.00042565       0.00000099
Sn      11.25794619      11.08626058      10.67597419       0.00035109      -0.00033384       0.00035188
9
Lattice="18.4694672216531 0.0 0.0 0.0 18.4694672216531 0.0 0.0 0.0 18.4694672216531" Properties=species:S:1:pos:R:3:forces:R:3 config_type=qcd dft_energy=-31.09877975 gap_energy=-30.98240726757563 relaxed_gap_energy=-31.067620959525662 energy=-31.067620959525662 free_energy=-31.067620959525662 pbc="T T T"
Sn       7.75204017      10.94203235       8.07390287      -0.00018977       0.00054072       0.00003683
Sn       9.78641238       9.86977506      10.17034788       0.00006360      -0.00029816       0.00006974
Sn      10.77969132      11.52814120       7.87397056      -0.00036076      -0.00015191       0.00000908
Sn       8.41160891       7.77205327      11.81951370       0.00020303      -0.00004769      -0.00035877
Sn      12.26322420       9.00430721       8.71215470      -0.00039008      -0.00032047      -0.00001877
Sn       6.92800624      10.29590027      10.98146574       0.00007316       0.00012947      -0.00033332
Sn       9.73524818       8.80327732       7.04938811      -0.00039098      -0.00015011       0.00076075
Sn      10.14586786       6.86952009       9.42623257       0.00024236       0.00018695       0.00022986
Sn       7.31050325       8.02759572       9.00562634       0.00074944       0.00011120      -0.00039539
10
Lattice="19.1835066359494 0.0 0.0 0.0 19.1835066359494 0.0 0.0 0.0 19.1835066359494" Properties=species:S:1:pos:R:3:forces:R:3 config_type=qcd dft_energy=-35.15276236 gap_energy=-34.42973410997036 relaxed_gap_energy=-34.61975135337831 energy=-34.61975135337831 free_energy=-34.61975135337831 pbc="T T T"
Sn       6.47836049      10.06541533       8.02590755      -0.00033809      -0.00010361       0.00002771
Sn       9.00812623       8.51451508       7.70906061       0.00033164      -0.00044365      -0.00068127
Sn       7.64217146       9.15622065      10.61913349      -0.00020319      -0.00022286       0.00073308
Sn       8.91194242      11.59313311       8.83146190       0.00026225       0.00073092      -0.00014131
Sn      11.29752262      10.47820530       7.30653701       0.00013801      -0.00000162       0.00010252
Sn       9.15938801      11.48264955      11.86228870       0.00007061       0.00008625      -0.00001455
Sn      11.83712458       8.13276345       9.19762698      -0.00029194       0.00031293       0.00037510
Sn       9.31004718       6.66346900      10.10525724       0.00004992       0.00002276      -0.00003115
Sn      10.52797614       8.74778415      11.98686706       0.00015121       0.00008626      -0.00042326
Sn      11.74487406      11.08337758      10.27339265      -0.00017043      -0.00046737       0.00005314
11
Lattice="18.95323256550719 0.0 0.0 0.0 18.95323256550719 0.0 0.0 0.0 18.95323256550719" Properties=species:S:1:pos:R:3:forces:R:3 config_type=qcd dft_energy=-38.04830828 gap_energy=-37.72429970877391 relaxed_gap_energy=-37.99637124255034 energy=-37.99637124255034 free_energy=-37.99637124255034 pbc="T T T"
Sn       6.66950293       6.57182726       9.43016776       0.00001233       0.00001169       0.00009192
Sn       7.53892360       8.77901130       7.62286091       0.00025985       0.00007746       0.00033254
Sn      10.54502674       9.42691502       7.38901297      -0.00050783       0.00004218      -0.00033719
Sn      12.33247430       8.24648346       9.56324914       0.00015230      -0.00058189       0.00017923
Sn       9.57595409       7.04589370       9.34895327       0.00007238      -0.00024282      -0.00008506
Sn       8.40698373      11.46949210       8.85522578      -0.00005396      -0.00005713      -0.00057639
Sn      11.44327146      11.11937335      10.05553068       0.00038383       0.00086470      -0.00001521
Sn       7.47010576       9.05790323      10.79305717      -0.00016456       0.00001190       0.00026599
Sn      10.85672939      12.39665790       7.42120557       0.00036082       0.00062750      -0.00053113
Sn      10.40447943       8.69798634      11.91443789      -0.00024221      -0.00028059       0.00028679
Sn       8.99932767      11.43123545      11.84907796      -0.00027295      -0.00047299       0.00038851
11
Lattice="20.59967860505968 0.0 0.0 0.0 20.59967860505968 0.0 0.0 0.0 20.59967860505968" Properties=species:S:1:pos:R:3:forces:R:3 config_type=qcd dft_energy=-38.04259043 gap_energy=-38.06670543176429 relaxed_gap_energy=-38.321355494081075 energy=-38.321355494081075 free_energy=-38.321355494081075 pbc="T T T"
Sn      10.24077802       9.44273111       6.61497907      -0.00004543      -0.00007392      -0.00005000
Sn       8.91202501      11.24826892       8.60205086       0.00002922       0.00007853       0.00064662
Sn      12.10143404      10.44600619       8.73754089       0.00001763       0.00004174       0.00060460
Sn       9.82590643       8.23992725       9.25864752      -0.00000000       0.00020274       0.00011941
Sn      11.09918630      13.29213047       9.20132351       0.00009939       0.00047385       0.00012748
Sn      12.24830023      11.80991226      11.60466587      -0.00047515      -0.00015717      -0.00075664
Sn      12.17187265       8.72726100      11.30928742       0.00026388       0.00007296       0.00010741
Sn       9.19874133      12.57699730      11.47514913       0.00034559      -0.00030573      -0.00077309
Sn       7.83323882       9.81862761      11.12501004      -0.00013147       0.00021055       0.00007019
Sn       9.50912047       7.46777149      12.14324250      -0.00008601      -0.00054127      -0.00008681
Sn      10.15762903      10.22859873      13.22633552      -0.00001765      -0.00000228      -0.00000916
11
Lattice="18.63586109410529 0.0 0.0 0.0 18.63586109410529 0.0 0.0 0.0 18.63586109410529" Properties=species:S:1:pos:R:3:forces:R:3 config_type=qcd dft_energy=-38.01674221 gap_energy=-37.88354404926599 relaxed_gap_energy=-38.182272524899176 energy=-38.182272524899176 free_energy=-38.182272524899176 pbc="T T T"
Sn      11.72871642       8.91557302      11.60150395      -0.00034306       0.00009408       0.00023209
Sn      10.01385579      11.09662264      10.27148452      -0.00033298       0.00006353       0.00032544
Sn       9.22074088       8.93481982       6.24608241      -0.00020520       0.00023881      -0.00004398
Sn      11.38204724       8.61153484       8.57316175       0.00032919       0.00018750      -0.00011007
Sn      10.82771158      11.32507624       7.34426694      -0.00001823      -0.00016384      -0.00007102
Sn       9.11059229       9.85828288      12.89381248       0.00028575      -0.00027953      -0.00032267
Sn       9.02642463       7.73630008      10.72190592      -0.00011036       0.00021317       0.00041255
Sn       7.82653269      11.21000501       7.88705650       0.00002630       0.00015038      -0.00012477
Sn       7.02709324      10.17191197      10.66828141       0.00058080       0.00003393      -0.00014434
Sn       9.38268109       6.40748554       8.00322908       0.00013670      -0.00047001      -0.00006908
Sn       6.95084017       8.22962398       8.28645105      -0.00034891      -0.00006801      -0.00008415
12
Lattice="19.55357323686888 0.0 0.0 0.0 19.55357323686888 0.0 0.0 0.0 19.55357323686888" Properties=species:S:1:pos:R:3:forces:R:3 config_type=qcd dft_energy=-41.64628718 gap_energy=-41.60014136047359 relaxed_gap_energy=-41.97682904580117 energy=-41.97682904580117 free_energy=-41.97682904580117 pbc="T T T"
Sn      10.23135031      11.26787415       7.29090590       0.00021702      -0.00008449       0.00038894
Sn      10.10731314       9.76847883      10.00378515      -0.00007929      -0.00010962      -0.00020864
Sn       8.28961753       7.25486832       9.97138584       0.00047064       0.00021456       0.00019124
Sn       8.55809000      12.44592051       9.77057904       0.00030151      -0.00014595       0.00013064
Sn      11.36689985       7.06490799      10.02760177      -0.00028407      -0.00045546      -0.00035398
Sn       7.61057896       9.83127720       8.28915045      -0.00009419      -0.00003960      -0.00002832
Sn      10.06544187       8.05969039       7.41502246       0.00024911       0.00012754       0.00048389
Sn       9.84060231      11.50665883      12.41286972      -0.00051787       0.00040872       0.00028226
Sn      12.58213630       9.57650791       8.35014047      -0.00002431      -0.00005077      -0.00073583
Sn      11.63873300      12.32167791       9.82420116      -0.00005058       0.00052573      -0.00032887
Sn       7.35810644       9.96574332      11.42723367       0.00039143      -0.00005540      -0.00004345
Sn       9.67256971       8.25783405      12.53856379      -0.00057941      -0.00033527       0.00022212
13
Lattice="30.0 0.0 0.0 0.0 30.0 0.0 0.0 0.0 30.0" Properties=species:S:1:pos:R:3:forces:R:3 config_type=qcd dft_energy=-45.26350707 gap_energy=-45.01284921348062 relaxed_gap_energy=-45.25790455988168 energy=-45.25790455988168 free_energy=-45.25790455988168 pbc="T T T"
Sn      13.17377961      12.93158353       8.43518990       0.00001718      -0.00016486      -0.00026108
Sn       9.18518962       9.67523761       9.16682420      -0.00007306       0.00000913       0.00047667
Sn      13.37023988      13.62475972      11.38620618      -0.00053806       0.00023335      -0.00000374
Sn      12.23067021       9.99603989       8.20058109      -0.00000026      -0.00007889       0.00009754
Sn      14.36574748      10.88859369      10.41255717       0.00041727      -0.00011166       0.00037718
Sn      11.07379016      11.96615884      10.31515159       0.00040947       0.00019536      -0.00057326
Sn      11.77230407       8.88212218      11.06234506      -0.00017506      -0.00030285      -0.00013283
Sn       8.10887313      12.39390429      10.12235459      -0.00040273      -0.00015839       0.00029673
Sn       9.04765057       7.46075639      11.25759058       0.00025506       0.00070965      -0.00023287
Sn       9.18068335      12.19664540      13.01073509      -0.00012932      -0.00039663      -0.00004624
Sn       7.36327611       9.94281880      11.82355396       0.00037095       0.00053880      -0.00006066
Sn      12.17051482      11.20099323      13.03853265      -0.00027619      -0.00031289      -0.00002087
Sn       9.80474561       9.18971554      13.66637383       0.00012475      -0.00016012       0.00008345
14
Lattice="20.8936519771837 0.0 0.0 0.0 20.8936519771837 0.0 0.0 0.0 20.8936519771837" Properties=species:S:1:pos:R:3:forces:R:3 config_type=qcd dft_energy=-48.9735322 gap_energy=-48.6774408353679 relaxed_gap_energy=-48.9742157970612 energy=-48.9742157970612 free_energy=-48.9742157970612 pbc="T T T"
Sn      10.19209008       9.03895780       6.98695997       0.00039533      -0.00015357       0.00002422
Sn      11.02556587      11.96277211       7.45761462       0.00021393      -0.00012515      -0.00043126
Sn       8.11105089      11.17316568       8.06269429       0.00064778       0.00069528      -0.00014153
Sn      12.75604207       9.56506638       8.60676908      -0.00056269       0.00006708      -0.00012488
Sn       7.80113196       8.15618882       8.60397401      -0.00047633      -0.00064037       0.00031869
Sn      10.53599411       7.75119655       9.93849144       0.00000758       0.00003282      -0.00027354
Sn      12.89101352      12.46092250       9.80007565      -0.00003476       0.00072436      -0.00021689
Sn       9.81053845      12.61085339      10.36296496      -0.00028292      -0.00039909       0.00018033
Sn       8.41631430       9.92449795      10.99833313      -0.00018280       0.00002788       0.00028886
Sn      11.58465241      10.26225413      11.42774197       0.00012068      -0.00057877       0.00000517
Sn      11.84138214      13.07970276      12.76948359       0.00029672      -0.00007037       0.00025964
Sn       9.94688776       8.39009663      13.22008476       0.00019548       0.00002680      -0.00030843
Sn       9.29346984      11.49393048      13.68639939      -0.00022841       0.00024667       0.00014345
Sn      12.04943041      10.38595867      14.33397702      -0.00010958       0.00014645       0.00027618
15
Lattice="20.15956 0.0 0.0 0.0 20.15956 0.0 0.0 0.0 20.15956" Properties=species:S:1:pos:R:3:forces:R:3 config_type=qcd dft_energy=-52.93536024 gap_energy=-52.50419824744606 relaxed_gap_energy=-52.690871963180946 energy=-52.690871963180946 free_energy=-52.690871963180946 pbc="T T T"
Sn       7.75874756       9.48480108       8.44249549       0.00004785       0.00047967       0.00017124
Sn       7.95814081      11.43880126      12.68211907       0.00012281       0.00012725      -0.00002030
Sn      10.57880154       7.89122670       8.24046802       0.00023197       0.00000934       0.00038222
Sn       9.55643234       9.01423683      11.18196052      -0.00015979      -0.00040840       0.00001591
Sn      10.58930334      11.12416117       8.95137433      -0.00015465       0.00015883      -0.00044501
Sn      12.77582461       9.83308151       7.37604772      -0.00027538      -0.00024170      -0.00015169
Sn      11.02235100      11.51975760      11.87839038      -0.00008020      -0.00009819      -0.00014957
Sn      13.56683612       7.79573853       9.53382566       0.00025168      -0.00018252       0.00025115
Sn      11.14297682       6.49734850      10.90199131      -0.00008553       0.00042189      -0.00036972
Sn       6.29336772      11.90651850      10.05440502      -0.00006082       0.00033084       0.00002914
Sn      12.60251774       8.81355595      12.34975025       0.00007359       0.00015281      -0.00009201
Sn       6.56931585       9.08247039      11.22964875       0.00012661      -0.00009449      -0.00038639
Sn      13.61219303      10.87615296      10.16947065       0.00001147       0.00004128       0.00021501
Sn       8.96780585      13.50113555      10.50157654      -0.00009176      -0.00015104       0.00014001
Sn       8.20208567      12.41771348       7.70317632       0.00004214      -0.00054558       0.00041001
15
Lattice="30.0 0.0 0.0 0.0 30.0 0.0 0.0 0.0 30.0" Properties=species:S:1:pos:R:3:forces:R:3 config_type=qcd dft_energy=-52.92024289 gap_energy=-51.98620750905119 relaxed_gap_energy=-52.446063193535416 energy=-52.446063193535416 free_energy=-52.446063193535416 pbc="T T T"
Sn      14.35056514      13.36250860       9.54475337       0.00029640      -0.00029962      -0.00035652
Sn      11.87866149      11.58177808      10.10355713      -0.00006659      -0.00029938       0.00027296
Sn      14.67127200      10.03773563      14.93896357      -0.00033301      -0.00000132       0.00009851
Sn      11.17090168      15.60597351      12.62254866       0.00020152       0.00008527       0.00034824
Sn      11.76530545      10.85824884      15.80181177       0.00009130      -0.00037758       0.00049400
Sn      14.20928562      12.66817796      16.58517953      -0.00054487      -0.00015069      -0.00004957
Sn      12.36609116       9.57895328      12.93715968       0.00012789       0.00015986       0.00036683
Sn      13.96846347      14.34267557      13.81127810      -0.00017208      -0.00014625      -0.00062823
Sn      13.88897878      15.98665560      11.18717299       0.00032329       0.00025481       0.00002684
Sn      11.58129044      14.04648455      15.73315086       0.00024800      -0.00055800       0.00002353
Sn      14.42583553      11.73941232      12.18203516       0.00001171       0.00085226      -0.00022659
Sn      16.37950261      12.54392955      14.40332223       0.00017299       0.00014032       0.00008568
Sn      11.62555870      14.78131735       9.49436274      -0.00050961      -0.00001069      -0.00010879
Sn      11.52435571      12.45635205      13.18051186      -0.00005412       0.00001680      -0.00010445
Sn       9.54818828      13.35940975      11.18220382       0.00020718       0.00033421      -0.00024244
16
Lattice="19.98330911299817 0.0 0.0 0.0 19.98330911299817 0.0 0.0 0.0 19.98330911299817" Properties=species:S:1:pos:R:3:forces:R:3 config_type=qcd dft_energy=-56.55611305 gap_energy=-55.60973579002735 relaxed_gap_energy=-56.209693542597286 energy=-56.209693542597286 free_energy=-56.209693542597286 pbc="T T T"
Sn      13.02198939      10.97086580      11.54874609       0.00022900       0.00034561       0.00008096
Sn      11.17790355       9.21742234      13.43550764      -0.00057317      -0.00051837      -0.00003594
Sn      13.35780780       7.88799081      11.64582031       0.00002384      -0.00016031       0.00002846
Sn      10.46533774       6.72494683      11.71610708      -0.00010740      -0.00028231      -0.00013449
Sn      13.84608326       9.56751167       9.00737785       0.00006994       0.00035507       0.00045429
Sn      10.07045191      11.53767466      11.70545911      -0.00032984       0.00031314      -0.00008015
Sn      11.95055083       7.22006198       8.96254281       0.00045699       0.00024052      -0.00049089
Sn       8.26053928       9.09675291      12.00378177      -0.00006167       0.00010441       0.00020202
Sn       9.06189665       8.00572791       9.26689485       0.00011550      -0.00037963       0.00055920
Sn      10.93297006      10.47826542       8.89761094       0.00017039       0.00009986      -0.00048924
Sn       9.34831093      13.44343917       9.49147115       0.00059915      -0.00005997      -0.00028671
Sn       6.34820918       9.49564922       9.40411835      -0.00026334       0.00013461       0.00040492
Sn       7.05874177      11.98720829      11.12558086       0.00013268       0.00015386       0.00029514
Sn       9.78796217      12.30291048       6.73254822      -0.00032942      -0.00046938      -0.00004240
Sn       8.28032062       9.69417265       6.90155216      -0.00017356       0.00015536      -0.00051068
Sn       6.89739775      12.23587278       8.02135369       0.00004091      -0.00003247       0.00004550
17
Lattice="20.63651020100683 0.0 0.0 0.0 20.63651020100683 0.0 0.0 0.0 20.63651020100683" Properties=species:S:1:pos:R:3:forces:R:3 config_type=qcd dft_energy=-59.45087276 gap_energy=-58.591929689807486 relaxed_gap_energy=-59.112121407141544 energy=-59.112121407141544 free_energy=-59.112121407141544 pbc="T T T"
Sn      11.25759768      10.78469643       6.80947364      -0.00063265       0.00030605      -0.00048020
Sn       8.64340825       9.31446268       7.39015897       0.00068121       0.00053611      -0.00038198
Sn      13.27030392      10.01495502       9.33442511       0.00048442      -0.00005281       0.00001361
Sn       8.81535204      12.32331311       8.44821538      -0.00038642      -0.00010569       0.00012411
Sn      11.29981698       7.93875398       7.91789605       0.00018972      -0.00058648       0.00058040
Sn      12.03323514      13.01400835       8.72222678      -0.00013102       0.00042244      -0.00001452
Sn       7.52358801      12.27905497      11.67008488       0.00007144      -0.00013130      -0.00074144
Sn      10.53035829      10.77113027      10.43143445       0.00002407      -0.00004697       0.00009487
Sn       8.96062066       7.61405894      10.10036555      -0.00039084       0.00019103       0.00000319
Sn       6.86917451      10.04055678       9.66122923      -0.00012959       0.00045849       0.00023024
Sn      12.12255384       7.31825551      10.70577702      -0.00043558       0.00000290       0.00023497
Sn      10.15670852      13.75777112      10.98142824      -0.00011150      -0.00001627      -0.00013061
Sn       7.66952208       9.33346923      12.50944703       0.00026970      -0.00059444       0.00051116
Sn      12.93982343       9.47269673      12.74595724      -0.00029607       0.00003410       0.00053917
Sn      12.92660814      12.32255788      11.53296052       0.00006728      -0.00012649      -0.00003576
Sn      10.27300821       7.98505558      13.02728757       0.00023450      -0.00017132      -0.00023005
Sn      10.11865699      11.12554013      13.42196904       0.00049133      -0.00011936      -0.00031715
18
Lattice="21.64879880055187 0.0 0.0 0.0 21.64879880055187 0.0 0.0 0.0 21.64879880055187" Properties=species:S:1:pos:R:3:forces:R:3 config_type=qcd dft_energy=-63.35733092 gap_energy=-62.68820805023863 relaxed_gap_energy=-63.01568508725751 energy=-63.01568508725751 free_energy=-63.01568508725751 pbc="T T T"
Sn      13.00043442      10.55354781      14.46823156      -0.00007086      -0.00020732       0.00046523
Sn      12.43616749      13.38290966      13.32378865      -0.00001694       0.00004684      -0.00009026
Sn      10.17082438      11.86597746      14.81994955       0.00014822       0.00012462      -0.00015235
Sn      10.41597552       8.78808047      14.18317459       0.00019014      -0.00014186      -0.00017583
Sn      14.73603270       9.14628728       9.70212265      -0.00007669       0.00055955      -0.00031592
Sn      12.88694750       8.39874576      12.21477743      -0.00065408       0.00002869       0.00048658
Sn      13.06449666      11.26860622      11.28719258       0.00005642      -0.00033497      -0.00068453
Sn      10.00887347      12.65923395      11.64389572       0.00007689       0.00026451      -0.00008933
Sn       8.18582705      10.52562672      12.71919238      -0.00012555      -0.00015654       0.00003360
Sn       6.96951638      12.39661676      10.44548304       0.00029660       0.00019046      -0.00010730
Sn       9.25600226      13.91006118       8.97808209       0.00016379      -0.00006232       0.00011643
Sn      10.32778536       9.41015376      11.01631837       0.00050200      -0.00023622      -0.00037801
Sn      14.15764206      11.91029250       8.51694115      -0.00023503       0.00022071       0.00008689
Sn      11.13088947      11.58917475       8.64510401       0.00049982      -0.00042039       0.00010725
Sn      12.90040364       9.45136932       7.19312912       0.00036901       0.00030960       0.00046136
Sn       8.02584633      11.37819110       7.67062925      -0.00050459      -0.00007105      -0.00008686
Sn       7.29400171       9.30556167       9.91702597       0.00014316      -0.00007032      -0.00015693
Sn       9.87152281       8.89875284       8.09415109      -0.00076232      -0.00004397       0.00047998
19
Lattice="21.52171719933965 0.0 0.0 0.0 21.52171719933965 0.0 0.0 0.0 21.52171719933965" Properties=species:S:1:pos:R:3:forces:R:3 config_type=qcd dft_energy=-66.69134956 gap_energy=-66.76598556617992 relaxed_gap_energy=-67.29035392830272 energy=-67.29035392830272 free_energy=-67.29035392830272 pbc="T T T"
Sn      10.23580337      11.97427794      14.86690138       0.00048099      -0.00019611       0.00043035
Sn      13.06755101      11.77147648      13.61757588      -0.00082270       0.00027605      -0.00003045
Sn      11.26651622       9.21770346      13.68729602       0.00048716       0.00028034      -0.00000248
Sn      11.04899483      13.81872890      12.41353542       0.00029717      -0.00016156       0.00055110
Sn       8.10241583      12.81163871      12.76559218       0.00005333      -0.00019264      -0.00038141
Sn       8.23811026       9.87140261      13.83276435      -0.00014689      -0.00003875      -0.00030742
Sn       9.29816900       8.33276470      11.30386845       0.00020567       0.00047624      -0.00008782
Sn       9.68050547      11.83805154      10.33645256      -0.00059441      -0.00024873      -0.00012235
Sn      12.28573068      10.42153990      11.02020927       0.00007780      -0.00020819       0.00074211
Sn      12.29382343       7.35129732      11.29019651      -0.00028847       0.00015716      -0.00006041
Sn      13.76476317      13.17241399      10.92383169      -0.00005534      -0.00009127      -0.00001478
Sn       7.00699676      10.48372808      11.05599662       0.00046568      -0.00013253       0.00008535
Sn      10.64345235       7.26761494       8.66908659       0.00007956      -0.00003887       0.00026956
Sn      11.32530138      14.27280639       9.27316835      -0.00001018       0.00002329       0.00009181
Sn      11.26787985       9.51752610       6.66151748      -0.00043009       0.00011105      -0.00049742
Sn       9.95608448      12.24341742       7.34659490       0.00052587      -0.00046026      -0.00019778
Sn      12.91306068      11.75400446       8.20222492      -0.00021252      -0.00000435      -0.00055713
Sn      13.42013326       8.71148595       8.75582670       0.00000555      -0.00000627       0.00022101
Sn       8.64102133       9.62443449       8.43367412      -0.00011818       0.00045541      -0.00013186
19
Lattice="21.58709844961537 0.0 0.0 0.0 21.58709844961537 0.0 0.0 0.0 21.58709844961537" Properties=species:S:1:pos:R:3:forces:R:3 config_type=qcd dft_energy=-66.64216476 gap_energy=-66.4931373538795 relaxed_gap_energy=-67.01352700196784 energy=-67.01352700196784 free_energy=-67.01352700196784 pbc="T T T"