3
Lattice="23.9583583203617 0.0 0.0 0.0 23.9583583203617 0.0 0.0 0.0 23.9583583203617" Properties=species:S:1:pos:R:3:forces:R:3 config_type=qcd dft_energy=-1.04860958 gap_energy=-1.1146069854076446 relaxed_gap_energy=-1.1163519734531606 energy=-1.1163519734531606 free_energy=-1.1163519734531606 pbc="T T T"
Sr      11.65245648      14.34172012      12.41792304       0.00005478      -0.00033615       0.00002163
Sr      12.39945573      10.45163150      13.81508713      -0.00005322       0.00026006      -0.00012669
Sr      11.88562527      11.14418586       9.70452732      -0.00000155       0.00007608       0.00010506
4
Lattice="23.60913378773326 0.0 0.0 0.0 23.60913378773326 0.0 0.0 0.0 23.60913378773326" Properties=species:S:1:pos:R:3:forces:R:3 config_type=qcd dft_energy=-2.27703673 gap_energy=-2.175189053721194 relaxed_gap_energy=-2.1837825988451662 energy=-2.1837825988451662 free_energy=-2.1837825988451662 pbc="T T T"
Sr      12.42711722      11.06044143       9.56355496      -0.00012033      -0.00013598      -0.00050039
Sr      10.03396854      10.36665760      12.67739381       0.00000899      -0.00013064       0.00005845
Sr      13.75181751      11.68116105      13.27305129       0.00020064      -0.00003189       0.00049129
Sr      11.00536430      14.11000750      11.70426752      -0.00008930       0.00029851      -0.00004934
5
Lattice="26.99639604687273 0.0 0.0 0.0 26.99639604687273 0.0 0.0 0.0 26.99639604687273" Properties=species:S:1:pos:R:3:forces:R:3 config_type=qcd dft_energy=-3.1800632 gap_energy=-3.134355488005805 relaxed_gap_energy=-3.168103125409739 energy=-3.168103125409739 free_energy=-3.168103125409739 pbc="T T T"
Sr      15.76085762      13.49819802      13.49819802      -0.00053247       0.00000000       0.00000000
Sr      13.49756585      16.77297857      13.49819802       0.00045019       0.00006607       0.00000000
Sr      13.49756585      10.22341747      13.49819802       0.00045019      -0.00006607       0.00000000
Sr      12.36750040      13.49819802      15.45751037      -0.00018395       0.00000000       0.00023062
Sr      12.36750039      13.49819802      11.53888567      -0.00018396       0.00000000      -0.00023062
6
Lattice="25.60335305929768 0.0 0.0 0.0 25.60335305929768 0.0 0.0 0.0 25.60335305929768" Properties=species:S:1:pos:R:3:forces:R:3 config_type=qcd dft_energy=-4.10043251 gap_energy=-4.048471053677469 relaxed_gap_energy=-4.089364134481139 energy=-4.089364134481139 free_energy=-4.089364134481139 pbc="T T T"
Sr      14.09014875      15.22375896      14.01176741       0.00033648       0.00018533      -0.00074461
Sr      15.59865551      11.82059035      12.35006576       0.00005481      -0.00022460       0.00028714
Sr      12.49790223       9.44424912      11.14489820       0.00013827       0.00022474       0.00003779
Sr      12.32853251      13.50193229      10.93427273       0.00011195       0.00042173       0.00003858
Sr      12.28693037      11.75281506      14.48577520      -0.00035079      -0.00041876       0.00012715
Sr      10.00788981      15.06671339      13.88327988      -0.00029073      -0.00018844       0.00025395
7
Lattice="26.97345829933887 0.0 0.0 0.0 26.97345829933887 0.0 0.0 0.0 26.97345829933887" Properties=species:S:1:pos:R:3:forces:R:3 config_type=qcd dft_energy=-5.51666671 gap_energy=-5.286787584363361 relaxed_gap_energy=-5.304788979327648 energy=-5.304788979327648 free_energy=-5.304788979327648 pbc="T T T"
Sr      16.98529008      13.48672915      13.48672915       0.00061908      -0.00000000      -0.00000000
Sr      14.56786158      16.81407677      13.48672915       0.00016418       0.00055990      -0.00000000
Sr      14.56786158      10.15938153      13.48672915       0.00016418      -0.00055990      -0.00000000
Sr      10.65631719      15.54311919      13.48672915      -0.00047564       0.00038250      -0.00000000
Sr      10.65631719      11.43033911      13.48672915      -0.00047564      -0.00038250      -0.00000000
Sr      13.48672821      13.48672915      15.46164170       0.00000192      -0.00000000      -0.00035724
Sr      13.48672821      13.48672915      11.51181660       0.00000192      -0.00000000       0.00035724
8
Lattice="26.22744530240486 0.0 0.0 0.0 26.22744530240486 0.0 0.0 0.0 26.22744530240486" Properties=species:S:1:pos:R:3:forces:R:3 config_type=qcd dft_energy=-6.42652363 gap_energy=-6.19217885353671 relaxed_gap_energy=-6.206174367464236 energy=-6.206174367464236 free_energy=-6.206174367464236 pbc="T T T"
Sr      15.89843131      14.00135567      16.57788544       0.00002681      -0.00016305      -0.00032643
Sr      16.22495211      12.73696821      12.59184143      -0.00060956      -0.00019649       0.00073454
Sr      13.76073978      10.71322713      15.09164745       0.00054284       0.00066323      -0.00022442
Sr      12.54207928      11.50360880      11.24761648       0.00022885      -0.00040702      -0.00009244
Sr      13.89832139      15.14515686      10.06157095       0.00026608      -0.00014361      -0.00013053
Sr      12.83538797      14.44254318      13.91423972       0.00014759       0.00003033      -0.00001048
Sr       9.79375234      11.77593564      14.22793885      -0.00015768      -0.00049768      -0.00008264
Sr       9.95611703      14.59098573      11.19704089      -0.00044493       0.00071427       0.00013240
9
Lattice="27.81396898824646 0.0 0.0 0.0 27.81396898824646 0.0 0.0 0.0 27.81396898824646" Properties=species:S:1:pos:R:3:forces:R:3 config_type=qcd dft_energy=-7.65398324 gap_energy=-7.381428944619521 relaxed_gap_energy=-7.408210210156098 energy=-7.408210210156098 free_energy=-7.408210210156098 pbc="T T T"
Sr      12.69295309      14.39423376      13.57545306       0.00027267      -0.00022318       0.00035574
Sr      13.26747300      12.85035024       9.94472306       0.00012383       0.00039562      -0.00005449
Sr      11.16802210      11.98271675      16.36073698       0.00004963       0.00050691       0.00011912
Sr      15.12660806      12.88850831      16.40216169      -0.00045611       0.00005968       0.00039471
Sr      13.71183868      10.48441224      13.38038801       0.00032482      -0.00004754       0.00005300
Sr      15.77679435      16.65750413      14.89076216       0.00029344      -0.00017419       0.00004050
Sr      16.42572018      13.42526651      12.43225753      -0.00022158       0.00020923      -0.00057283
Sr      14.54647086      16.67367140      10.88019380      -0.00012295      -0.00030559      -0.00025985
Sr      12.44698011      15.80619710      17.29618417      -0.00026375      -0.00042095      -0.00007589
10
Lattice="26.37134317328574 0.0 0.0 0.0 26.37134317328574 0.0 0.0 0.0 26.37134317328574" Properties=species:S:1:pos:R:3:forces:R:3 config_type=qcd dft_energy=-9.08622348 gap_energy=-8.020217741877234 relaxed_gap_energy=-8.245146382783249 energy=-8.245146382783249 free_energy=-8.245146382783249 pbc="T T T"
Sr      13.64784472      10.77264832      10.16363489       0.00077977      -0.00027450      -0.00012907
Sr      11.85997922      15.05447382      10.03374266      -0.00006573       0.00061943       0.00040584
Sr      15.93195270      14.74818592      10.90388668      -0.00003182      -0.00060328       0.00000227
Sr      10.70672907      10.22572524      13.71296440      -0.00004589       0.00022977       0.00092366
Sr      13.21440399      13.04033902      13.00409823      -0.00006478       0.00002173      -0.00036203
Sr       9.70205738      14.53053902      13.85901146      -0.00016944      -0.00000226       0.00004461
Sr      16.25011870      14.03319922      15.25838788       0.00036181       0.00002028      -0.00007942
Sr      14.77786383       9.91537468      14.58613984       0.00029984       0.00007705      -0.00066834
Sr      13.36655969      16.79648526      13.62175182      -0.00022419      -0.00034541       0.00015879
Sr      12.39920657      12.73974535      16.71309800      -0.00083957       0.00025718      -0.00029631
11
Lattice="26.8172171916111 0.0 0.0 0.0 26.8172171916111 0.0 0.0 0.0 26.8172171916111" Properties=species:S:1:pos:R:3:forces:R:3 config_type=qcd dft_energy=-10.08134657 gap_energy=-9.572227265805417 relaxed_gap_energy=-9.60585581355977 energy=-9.60585581355977 free_energy=-9.60585581355977 pbc="T T T"
Sr      11.43302110      11.35495141      10.15376506       0.00002003       0.00035859       0.00043046
Sr      17.09678211      14.20090965      13.11534941      -0.00023602      -0.00063026       0.00013348
Sr      11.39996479      14.36338082      16.46954133       0.00040436       0.00020521       0.00007525
Sr      10.03590692      14.65143924      12.22704184      -0.00033277      -0.00025416       0.00024942
Sr      14.98365026      11.37145796      16.18142194      -0.00046904       0.00087099      -0.00005504
Sr      14.06356651      14.53430416       9.85602260       0.00003663       0.00016019       0.00024475
Sr      15.38439770      15.46109462      16.66421784      -0.00052462      -0.00011119      -0.00065798
Sr      13.40839069      13.40850000      13.40880468       0.00043003       0.00044626       0.00005754
Sr      11.07311604      10.53689297      14.19347578       0.00009443      -0.00011564      -0.00040325
Sr      15.10150775      10.42038512      11.82153733       0.00040622      -0.00000985      -0.00027224
Sr      13.51439068      17.19137860      13.40351672       0.00017076      -0.00092013       0.00019761
12
Lattice="27.82294430481152 0.0 0.0 0.0 27.82294430481152 0.0 0.0 0.0 27.82294430481152" Properties=species:S:1:pos:R:3:forces:R:3 config_type=qcd dft_energy=-11.24956855 gap_energy=-11.12279899777895 relaxed_gap_energy=-11.134047063901729 energy=-11.134047063901729 free_energy=-11.134047063901729 pbc="T T T"
Sr      15.28889053      17.29338592      12.71050479      -0.00012682       0.00024138      -0.00002017
Sr      11.49128450      11.86251959      11.17250294       0.00016071      -0.00011285      -0.00022838
Sr      17.53371703      13.83504913      13.52250003       0.00021374       0.00009302      -0.00005507
Sr      12.24035251      13.89461305      17.75354070       0.00035082      -0.00001696       0.00021129
Sr      11.58794756      16.14471988      11.23300900       0.00005217       0.00006044      -0.00035540
Sr      15.58951940      11.73666365      16.60074138      -0.00024892       0.00014946      -0.00024074
Sr      14.94866243      13.94068135      10.21080263       0.00003632      -0.00010401      -0.00023361
Sr      15.68372964      15.93134634      16.65980418      -0.00008905      -0.00005698       0.00011536
Sr      13.48834564      13.92073548      13.95668132       0.00008926      -0.00078134       0.00051720
Sr      11.89678140      10.47051636      15.20272172      -0.00006857       0.00038227      -0.00001138
Sr      15.13600486      10.50601989      12.61414800      -0.00031572       0.00021405       0.00014195
Sr      12.05243031      17.40141518      15.30070914      -0.00005395      -0.00006847       0.00015896
13
Lattice="28.28946075143222 0.0 0.0 0.0 28.28946075143222 0.0 0.0 0.0 28.28946075143222" Properties=species:S:1:pos:R:3:forces:R:3 config_type=qcd dft_energy=-12.78547762 gap_energy=-12.75404013668092 relaxed_gap_energy=-12.755120498946422 energy=-12.755120498946422 free_energy=-12.755120498946422 pbc="T T T"
Sr      14.14471557      14.14467632      14.14480035       0.00003461       0.00012863      -0.00016721
Sr      14.14332650      14.14483987      18.16054121       0.00051731       0.00003186       0.00034617
Sr      15.25400739      10.72935250      15.94097583       0.00030509      -0.00035554      -0.00019667
Sr      11.23862364      12.03404939      15.94104909      -0.00015686      -0.00049455      -0.00048031
Sr      11.23821850      16.25567961      15.94092220       0.00006853       0.00036647      -0.00044676
Sr      15.25360899      17.56020310      15.94080049       0.00040834       0.00023649      -0.00025877
Sr      17.73568313      14.14462296      15.94039251       0.00024626       0.00016318       0.00039652
Sr      13.03585149      10.72926359      12.34867908      -0.00041389      -0.00025172       0.00021716
Sr      10.55376071      14.14483409      12.34906901      -0.00020454      -0.00014720      -0.00040248
Sr      13.03543287      17.56015796      12.34846405      -0.00025663       0.00023684       0.00024515
Sr      17.05087848      16.25544054      12.34839172       0.00005303       0.00043026       0.00052646
Sr      17.05124919      12.03376526      12.34854417      -0.00008468      -0.00033197       0.00043712
Sr      14.14613844      14.14460969      10.12886518      -0.00051659      -0.00001276      -0.00021639
14
Lattice="29.5884715523989 0.0 0.0 0.0 29.5884715523989 0.0 0.0 0.0 29.5884715523989" Properties=species:S:1:pos:R:3:forces:R:3 config_type=qcd dft_energy=-13.8664291 gap_energy=-13.621702100338512 relaxed_gap_energy=-13.630357833522952 energy=-13.630357833522952 free_energy=-13.630357833522952 pbc="T T T"
Sr      15.04309456      14.56073234      18.43310168      -0.00019055      -0.00001541      -0.00037699
Sr      11.78939768      16.93290718      19.86382068       0.00059337      -0.00005033       0.00078070
Sr      13.92415702      11.17501202      16.12535373      -0.00043987       0.00010350       0.00021249
Sr      11.46195203      14.63203853      16.28268726       0.00022248       0.00037506       0.00011462
Sr      13.93896436      17.99716505      16.33044761      -0.00030727      -0.00032958      -0.00006745
Sr      17.97383057      16.67589252      16.20137368      -0.00024212       0.00042991       0.00042702
Sr      17.93014250      12.46781618      16.11114095      -0.00027232       0.00006494      -0.00006135
Sr      15.04697827      14.61457665      14.36872900      -0.00039059      -0.00000838      -0.00024459
Sr      14.97811033      14.72028608      10.37364168       0.00082089      -0.00055083       0.00006319
Sr      12.08826694      12.58687326      12.60899038       0.00039042       0.00009205      -0.00018870
Sr      16.09769025      11.24136102      12.49992663       0.00031752       0.00042240      -0.00031326
Sr      12.11519905      16.79664361      12.68826016      -0.00020325       0.00004014       0.00005178
Sr      16.12746617      18.07256176      12.68504189      -0.00012816      -0.00028884      -0.00012553
Sr      18.60405114      14.64543464      12.54678554      -0.00017055      -0.00028465      -0.00027194
15
Lattice="28.90336830458445 0.0 0.0 0.0 28.90336830458445 0.0 0.0 0.0 28.90336830458445" Properties=species:S:1:pos:R:3:forces:R:3 config_type=qcd dft_energy=-15.16281478 gap_energy=-14.789797066999693 relaxed_gap_energy=-14.795597128272949 energy=-14.795597128272949 free_energy=-14.795597128272949 pbc="T T T"
Sr      14.33935673      14.92336170       9.96327035      -0.00011971      -0.00007017       0.00009887
Sr      16.26315708      11.74804626      11.96237720      -0.00015428       0.00007678       0.00023142
Sr      18.18385127      15.51227626      11.65415827      -0.00000887       0.00002392      -0.00000302
Sr      12.10332929      12.37730953      12.59379775      -0.00042642      -0.00026668      -0.00018549
Sr      15.22696187      18.51084467      12.04424621       0.00034515       0.00019902      -0.00025041
Sr      11.49224205      16.58730729      12.59097882      -0.00009315       0.00003779       0.00003737
Sr      14.93636281      15.00161658      13.89247669       0.00044169      -0.00010431      -0.00063055
Sr      10.56953189      10.41423764      16.09529858       0.00054527       0.00020312      -0.00021961
Sr      14.53519894      11.42558736      15.83996813       0.00000892      -0.00018702      -0.00000832
Sr      11.63296071      14.37121717      16.22156736      -0.00051489      -0.00013434       0.00043037
Sr      18.30330193      13.32809308      15.28274258      -0.00028880      -0.00023525       0.00010801
Sr      13.53267403      18.16696327      15.91210362      -0.00028438       0.00022844      -0.00006047
Sr      17.65906936      17.49423841      15.36676541       0.00002640      -0.00006593       0.00015001
Sr      15.38807189      14.92069081      17.94041118       0.00020641       0.00021658       0.00080402
Sr      12.60919240      11.99347224      19.41510012       0.00031665       0.00007803      -0.00050221
16
Lattice="29.42496886964147 0.0 0.0 0.0 29.42496886964147 0.0 0.0 0.0 29.42496886964147" Properties=species:S:1:pos:R:3:forces:R:3 config_type=qcd dft_energy=-16.35884182 gap_energy=-15.926917120598999 relaxed_gap_energy=-15.93473446108969 energy=-15.93473446108969 free_energy=-15.93473446108969 pbc="T T T"
Sr      19.81180149      14.06220987      12.77641454      -0.00029510       0.00001244       0.00007887
Sr      19.89051070      16.86701241      15.99155855      -0.00052685      -0.00027974      -0.00005048
Sr      17.25051848      15.25833861       9.58019312      -0.00021507       0.00047043       0.00028947
Sr      13.29144867      15.60146988      11.29062059      -0.00020762       0.00020328      -0.00032111
Sr      16.72548348      16.52826909      13.42912337      -0.00075735       0.00012840       0.00033540
Sr      17.47356439      13.51851846      16.19028963       0.00005659      -0.00016836       0.00059604
Sr      15.92595561      12.57715001      12.43266549      -0.00008506      -0.00035443      -0.00050407
Sr      15.82047291      17.13923414      17.43400687      -0.00016820       0.00020952      -0.00003531
Sr      13.62509519      14.53581473      15.20441326       0.00039986      -0.00074083       0.00015778
Sr       9.99142348      15.61620850      14.06539277       0.00015705       0.00057478       0.00004452
Sr      13.09395704      18.44391127      14.44535532       0.00049257      -0.00027682      -0.00020701
Sr      11.70730693      11.95684653      12.84132590       0.00068520      -0.00038479       0.00010831
Sr      14.24532369      13.49898456      19.00588408       0.00048933      -0.00021577      -0.00026989
Sr      14.31429828      10.66661412      15.88874827       0.00000427       0.00019642      -0.00000306
Sr      10.66129222      12.55312178      16.92009471      -0.00010806      -0.00000546       0.00015821
Sr      11.57129840      16.57604698      17.90366449       0.00007842       0.00063091      -0.00037769
17
Lattice="28.52911722852393 0.0 0.0 0.0 28.52911722852393 0.0 0.0 0.0 28.52911722852393" Properties=species:S:1:pos:R:3:forces:R:3 config_type=qcd dft_energy=-17.61352327 gap_energy=-16.80567367125485 relaxed_gap_energy=-17.822619439339956 energy=-17.822619439339956 free_energy=-17.822619439339956 pbc="T T T"
Sr      14.26455861      18.88252986      16.86144272      -0.00000000      -0.00028618       0.00010402
Sr      10.81172241      16.38249651      16.25855329      -0.00033566      -0.00050806       0.00005020
Sr      12.01449071      18.88101934      12.96506612       0.00027738      -0.00004190       0.00016265
Sr      14.26455861      14.26455861      18.16626069      -0.00000000      -0.00000000       0.00036869
Sr      14.26455861      15.49874865      14.26508047       0.00000000       0.00019468      -0.00046344
Sr      14.26455861      16.38114757      10.27775818       0.00000000       0.00023404      -0.00033523
Sr      10.88576212      14.26455861      12.31409768       0.00000065      -0.00000000       0.00008460
Sr      14.26455861       9.64658737      16.86144272      -0.00000000       0.00028618       0.00010402
Sr      12.01449071       9.64809789      12.96506612       0.00027738       0.00004190       0.00016265
Sr      10.81172241      12.14662072      16.25855329      -0.00033566       0.00050806       0.00005020
Sr      17.71739481      16.38249651      16.25855329       0.00033566      -0.00050806       0.00005020
Sr      16.51462652      18.88101934      12.96506612      -0.00027738      -0.00004190       0.00016265
Sr      14.26455861      13.03036858      14.26508047       0.00000000      -0.00019468      -0.00046344
Sr      17.64335511      14.26455861      12.31409768      -0.00000065      -0.00000000       0.00008460
Sr      17.71739481      12.14662072      16.25855329       0.00033566       0.00050806       0.00005020
Sr      14.26455861      12.14796965      10.27775818       0.00000000      -0.00023404      -0.00033523
Sr      16.51462652       9.64809789      12.96506612      -0.00027738       0.00004190       0.00016265
17
Lattice="29.69431631817913 0.0 0.0 0.0 29.69431631817913 0.0 0.0 0.0 29.69431631817913" Properties=species:S:1:pos:R:3:forces:R:3 config_type=qcd dft_energy=-17.59710524 gap_energy=-17.057091689994547 relaxed_gap_energy=-17.067751224603793 energy=-17.067751224603793 free_energy=-17.067751224603793 pbc="T T T"
Sr      15.53674915      14.78706476      17.77547535       0.00048211       0.00001544      -0.00042865
Sr      12.22290120      12.60663045      19.02499472      -0.00024166      -0.00000843      -0.00015710
Sr      12.47293447      16.94200686      19.24436189       0.00022258       0.00008317       0.00011118
Sr      16.47198069      18.47641726      19.27316917       0.00001514      -0.00025279       0.00013694
Sr      14.36736196      11.44733976      15.61499435       0.00018151       0.00036621      -0.00041562
Sr      11.95888798      14.84332804      15.69072367      -0.00007815      -0.00039424      -0.00037683
Sr      14.36543455      18.21878440      15.72869984       0.00022506       0.00014886      -0.00001896
Sr      18.36269458      16.99737493      15.64464293       0.00026402       0.00025673       0.00005565
Sr      18.42298307      12.74367104      15.44204258      -0.00040349       0.00032876      -0.00005000
Sr      15.52608769      14.86724523      13.68205856       0.00039374      -0.00080659       0.00038977
Sr      15.35946014      14.90257663       9.74646491      -0.00025462      -0.00005868       0.00018644
Sr      12.45236584      12.72964945      12.12698154      -0.00014721      -0.00035947      -0.00016690
Sr      16.53285994      11.46415365      11.89991414       0.00015538       0.00009212       0.00037728
Sr      12.53625233      16.98738385      12.08265276      -0.00017178      -0.00002260       0.00001962
Sr      16.53029947      18.32819306      12.01505254      -0.00023506       0.00029083      -0.00015409
Sr      19.03303488      14.92865089      11.88818243      -0.00025549      -0.00001927       0.00046057
Sr      10.24940081      11.13121845      15.52127732      -0.00015208       0.00033996       0.00003070
18
Lattice="29.71352184737169 0.0 0.0 0.0 29.71352184737169 0.0 0.0 0.0 29.71352184737169" Properties=species:S:1:pos:R:3:forces:R:3 config_type=qcd dft_energy=-18.96290684 gap_energy=-18.41725951269507 relaxed_gap_energy=-18.430931858066785 energy=-18.430931858066785 free_energy=-18.430931858066785 pbc="T T T"
Sr      14.85617414      14.82240944      17.30362146       0.00086147      -0.00000944      -0.00002271
Sr      15.97027939      11.29899266      18.72859376       0.00009812      -0.00015294      -0.00011859
Sr      11.86930395      12.65992528      18.74721596      -0.00040565      -0.00026064       0.00000550
Sr      11.89644363      16.98033325      18.80840051      -0.00047527       0.00028060      -0.00007295
Sr      16.01405831      18.28977446      18.82754073       0.00007381       0.00022147      -0.00026616
Sr      18.53201705      14.77849404      18.77797088       0.00006570       0.00005357      -0.00019926
Sr      13.73719023      11.47796592      15.17410621       0.00001048       0.00005431       0.00031103
Sr      11.30204312      14.87393704      15.22154057      -0.00012674      -0.00002444       0.00036665
Sr      13.77924344      18.23939557      15.26937858       0.00007771      -0.00026729       0.00026583
Sr      17.74560806      16.92324175      15.25115621      -0.00019042      -0.00019185       0.00036221
Sr      17.71956940      12.74457475      15.19231645      -0.00010815       0.00010795       0.00036201
Sr      14.85686162      14.88032012      13.19063065       0.00022076      -0.00002488      -0.00062361
Sr      14.85734709      14.93525986       9.25644527       0.00000099       0.00000274      -0.00021818
Sr      11.93499145      12.80790927      11.50486155       0.00024102       0.00029018      -0.00005727
Sr      15.94717727      11.47672372      11.48681077      -0.00014500       0.00053723      -0.00013688
Sr      11.96123313      17.03489797      11.56406726       0.00014684      -0.00017785      -0.00001042
Sr      15.98934131      18.31630916      11.58254771      -0.00002386      -0.00043337      -0.00000870
Sr      18.45281405      14.88123237      11.53449211      -0.00032181      -0.00000535       0.00006149
19
Lattice="32.15623909758146 0.0 0.0 0.0 32.15623909758146 0.0 0.0 0.0 32.15623909758146" Properties=species:S:1:pos:R:3:forces:R:3 config_type=qcd dft_energy=-20.61340649 gap_energy=-20.039757080459964 relaxed_gap_energy=-20.051355083262447 energy=-20.051355083262447 free_energy=-20.051355083262447 pbc="T T T"
Sr      16.07800783      16.05057322      18.10678538       0.00002488      -0.00065847      -0.00062465
Sr      16.07734111      15.99648666      22.03267247       0.00004977       0.00006231      -0.00016548
Sr      17.16910451      12.59900931      19.71321938      -0.00016523       0.00022613       0.00011316
Sr      13.15426687      13.93096161      19.73113660      -0.00016191      -0.00013670       0.00006189
Sr      13.17951642      18.16040512      19.78869244      -0.00007812      -0.00007045       0.00032529
Sr      17.20987710      19.44245346      19.80695213       0.00035975       0.00024225       0.00014806
Sr      19.67568262      16.00560760      19.76016843       0.00015637       0.00012220       0.00023823
Sr      14.95132574      12.68037012      16.03162118       0.00003717       0.00005904      -0.00002343
Sr      12.49820709      16.10026262      16.07812838      -0.00035329      -0.00029443       0.00002530
Sr      14.99227957      19.48953262      16.12447375       0.00012922       0.00030392       0.00015898
Sr      18.98725195      18.16426896      16.10693691       0.00017105       0.00032915       0.00005636
Sr      18.96218861      13.95601147      16.04941047      -0.00046000       0.00012523      -0.00002877
Sr      16.07826343      16.10615636      14.04963306       0.00038653      -0.00067064       0.00042893
Sr      16.07870432      16.15992096      10.12349094      -0.00002273      -0.00019357       0.00026602
Sr      13.15504494      14.03197524      12.36737141      -0.00032505      -0.00031785      -0.00027084
Sr      17.16952666      12.70016372      12.34929035      -0.00003316      -0.00001440      -0.00006816
Sr      13.18027772      18.26089167      12.42507940      -0.00010185       0.00025666      -0.00025082
Sr      17.21094526      19.54308684      12.44299238       0.00025631       0.00037573      -0.00021775
Sr      19.67645972      16.10613388      12.39621634       0.00013029       0.00025388      -0.00017232
20
Lattice="25.50022557201894 0.0 0.0 0.0 25.50022557201894 0.0 0.0 0.0 25.50022557201894" Properties=species:S:1:pos:R:3:forces:R:3 config_type=qcd dft_energy=-21.82131268 gap_energy=-21.117081700174236 relaxed_gap_energy=-21.145124801936703 energy=-21.145124801936703 free_energy=-21.145124801936703 pbc="T T T"
Sr      13.43770893      13.79510705       8.03295937      -0.00031900       0.00010469       0.00038176
Sr       9.46631580      12.41778647       8.89191508      -0.00001025      -0.00000991       0.00011093
Sr      12.89360056      10.41796976      10.44656492       0.00032004       0.00012286       0.00018225
Sr      10.21272302      16.57900859       8.99457924       0.00027298      -0.00028306      -0.00017959
Sr      15.72926507      13.33679179      11.50635181      -0.00015240      -0.00041953       0.00012297
Sr      16.51886692      10.64313916       8.46857463      -0.00033520       0.00024059       0.00046789
Sr      14.07511444      17.16176658      10.61477498       0.00005888       0.00015942       0.00001163
Sr      11.71068288      14.15322425      11.66730741      -0.00052894       0.00014982      -0.00009186
Sr       9.54570093      10.89185077      12.92139610      -0.00019522       0.00023803       0.00023077
Sr       7.83019243      14.74383697      12.03557382       0.00055488      -0.00018843      -0.00012026
Sr      16.25950295       9.35909024      12.69990017      -0.00064010       0.00050863       0.00039341
Sr      12.41230845       7.78664485      13.76447481      -0.00007036       0.00001991      -0.00005716
Sr      10.68074683      17.67805094      13.10111386       0.00022334      -0.00033484      -0.00015364
Sr      13.33311770      11.60214100      14.35154365       0.00057244      -0.00015749      -0.00024615
Sr      14.14082618      15.62209239      14.63901681      -0.00021753       0.00005148       0.00026851
Sr      10.30027609      14.11942370      15.53286263       0.00022151      -0.00006304      -0.00032014
Sr      17.02099280      12.53081412      15.48712221      -0.00016387       0.00003702      -0.00011477
Sr      10.80636982      10.06548036      16.95779555       0.00004884      -0.00003728      -0.00020493
Sr      14.97125707       9.09829325      16.86517993       0.00023553      -0.00010436      -0.00040142
Sr      13.65668685      12.99974349      18.02324877       0.00012444      -0.00003450      -0.00028021
21
Lattice="31.44229608983712 0.0 0.0 0.0 31.44229608983712 0.0 0.0 0.0 31.44229608983712" Properties=species:S:1:pos:R:3:forces:R:3 config_type=qcd dft_energy=-22.99032614 gap_energy=-22.197321336861254 relaxed_gap_energy=-22.22988793527829 energy=-22.22988793527829 free_energy=-22.22988793527829 pbc="T T T"
Sr      13.15645310      15.12419094      10.30470497      -0.00043589       0.00000436       0.00034950
Sr       9.88205777      15.84247251      17.19192946      -0.00002866      -0.00004317      -0.00061709