3
Lattice="16.03153400893644 0.0 0.0 0.0 16.03153400893644 0.0 0.0 0.0 16.03153400893644" Properties=species:S:1:pos:R:3:forces:R:3 config_type=qcd dft_energy=-21.88570936 gap_energy=-23.287977362186346 relaxed_gap_energy=-23.394257728434603 energy=-23.394257728434603 free_energy=-23.394257728434603 pbc="T T T"
Ta       7.10863908       7.64685075       8.89133992      -0.00002974       0.00006684      -0.00000841
Ta       9.06448867       7.24217234       7.74008930       0.00022557      -0.00033990      -0.00000755
Ta       8.02782395       9.29379753       7.56571675      -0.00019582       0.00027306       0.00001595
4
Lattice="17.85449369830817 0.0 0.0 0.0 17.85449369830817 0.0 0.0 0.0 17.85449369830817" Properties=species:S:1:pos:R:3:forces:R:3 config_type=qcd dft_energy=-33.01257399 gap_energy=-32.855369622817676 relaxed_gap_energy=-32.89721697586478 energy=-32.89721697586478 free_energy=-32.89721697586478 pbc="T T T"
Ta       8.37353904       9.90124940       9.99715424       0.00010434      -0.00020109      -0.00019239
Ta       7.87859231       7.79356334       8.80471787      -0.00001556       0.00010266       0.00005433
Ta      10.27243955       8.22631569       9.24207445      -0.00013838       0.00021134      -0.00007140
Ta       9.18441650       9.78785897       7.66504082       0.00004960      -0.00011291       0.00020946
5
Lattice="13.47867457925227 0.0 0.0 0.0 13.47867457925227 0.0 0.0 0.0 13.47867457925227" Properties=species:S:1:pos:R:3:forces:R:3 config_type=qcd dft_energy=-42.84243634 gap_energy=-42.622467599581995 relaxed_gap_energy=-42.686716828022526 energy=-42.686716828022526 free_energy=-42.686716828022526 pbc="T T T"
Ta       7.73855283       7.78529185       7.34289994      -0.00041940      -0.00016672      -0.00027213
Ta       7.25747645       5.26293353       7.96041151      -0.00010323       0.00029614      -0.00036119
Ta       6.24118418       8.17228505       5.45959782       0.00024781      -0.00006865       0.00028852
Ta       7.14475720       5.86103732       5.55275065      -0.00005291      -0.00001804       0.00036654
Ta       5.31471578       6.61513871       7.38102654       0.00032772      -0.00004272      -0.00002173
6
Lattice="30.0 0.0 0.0 0.0 30.0 0.0 0.0 0.0 30.0" Properties=species:S:1:pos:R:3:forces:R:3 config_type=qcd dft_energy=-52.86079658 gap_energy=-52.113456708577516 relaxed_gap_energy=-52.57398212915545 energy=-52.57398212915545 free_energy=-52.57398212915545 pbc="T T T"
Ta       6.42545009       7.85635888       6.67505322       0.00047037       0.00001917      -0.00001407
Ta       8.54209837       6.61464395       6.67309384      -0.00017255       0.00010052       0.00006868
Ta       8.55917577       9.06845978       6.68944694      -0.00023982      -0.00012229      -0.00000664
Ta       7.11848704       6.60908475       8.98813496      -0.00001115       0.00009235      -0.00000646
Ta       9.25209349       7.82125959       9.00260012      -0.00007471       0.00001021      -0.00011111
Ta       7.13546224       9.06296007       9.00443790       0.00002785      -0.00009996       0.00006959
7
Lattice="30.0 0.0 0.0 0.0 30.0 0.0 0.0 0.0 30.0" Properties=species:S:1:pos:R:3:forces:R:3 config_type=qcd dft_energy=-63.65006331 gap_energy=-63.10570666324948 relaxed_gap_energy=-63.25515577720232 energy=-63.25515577720232 free_energy=-63.25515577720232 pbc="T T T"
Ta       6.95201887       6.52408191       8.27662396       0.00005929       0.00023833       0.00014747
Ta       8.88619107       6.85782211       9.75948213      -0.00012560       0.00024998      -0.00017070
Ta       8.64082843      10.13822186       7.30083752       0.00011922       0.00029995      -0.00020191
Ta       9.16002018       7.52531464       7.21161922       0.00009145      -0.00023407       0.00007138
Ta       9.95374448       9.13322362       9.14891358       0.00001978      -0.00003205       0.00003342
Ta       7.32441472       8.94349944       9.28681329      -0.00002621      -0.00051938       0.00044602
Ta       6.79284726       8.58790141       6.72577530      -0.00013794      -0.00000275      -0.00032569
8
Lattice="30.0 0.0 0.0 0.0 30.0 0.0 0.0 0.0 30.0" Properties=species:S:1:pos:R:3:forces:R:3 config_type=qcd dft_energy=-73.9907971 gap_energy=-72.55100593272385 relaxed_gap_energy=-72.96865871701948 energy=-72.96865871701948 free_energy=-72.96865871701948 pbc="T T T"
Ta       6.71222664       7.51640182       9.72404718      -0.00047156      -0.00042000       0.00072391
Ta       9.00790656       8.79143379       6.80910708       0.00008144      -0.00004025       0.00066720
Ta       9.74736590      10.61608015       8.55960416      -0.00005117      -0.00017744       0.00008791
Ta       8.94686114       6.77539425       8.54178001       0.00050382      -0.00008237      -0.00034540
Ta       6.74960562       7.51888473       7.29409826      -0.00063281      -0.00011023      -0.00065649
Ta       7.24034496       9.79862468       8.51991825       0.00025954       0.00035507      -0.00032806
Ta       8.95594313       8.78564207      10.28050947       0.00043049       0.00039635      -0.00031759
Ta      10.94197806       8.49977052       8.57316760      -0.00011975       0.00007887       0.00016852
9
Lattice="30.0 0.0 0.0 0.0 30.0 0.0 0.0 0.0 30.0" Properties=species:S:1:pos:R:3:forces:R:3 config_type=qcd dft_energy=-83.65909553 gap_energy=-83.05016963122833 relaxed_gap_energy=-83.35150041213817 energy=-83.35150041213817 free_energy=-83.35150041213817 pbc="T T T"
Ta       7.53437876       8.03768412       6.92375820      -0.00011881       0.00065745       0.00043035
Ta       7.48165178       7.78094033       9.51295305       0.00028057       0.00002429       0.00012294
Ta       9.67241549       7.15010497       8.12519981      -0.00007980      -0.00022546       0.00009306
Ta       9.81551956       8.22567712      10.56362233      -0.00036656      -0.00034435       0.00016427
Ta       6.57576094       9.88175967       8.27259533       0.00043753      -0.00045756      -0.00046228
Ta       8.06863221      10.23528167      10.38180927      -0.00015219      -0.00008187       0.00019068
Ta       9.23335371       9.81971045       7.97052877      -0.00011991       0.00010634      -0.00020936
Ta      10.62712636      10.65374723      10.09646002       0.00025595      -0.00015100      -0.00039258
Ta      11.58574268       8.80967594       8.74765472      -0.00013680       0.00047215       0.00006292
10
Lattice="14.87805006030232 0.0 0.0 0.0 14.87805006030232 0.0 0.0 0.0 14.87805006030232" Properties=species:S:1:pos:R:3:forces:R:3 config_type=qcd dft_energy=-94.83941584 gap_energy=-92.88320266333307 relaxed_gap_energy=-93.03855378793799 energy=-93.03855378793799 free_energy=-93.03855378793799 pbc="T T T"
Ta       9.39895692       8.32722611       6.93881146      -0.00014273      -0.00032903       0.00019917
Ta       7.74493392       6.90424446       5.31762687       0.00082291      -0.00025134      -0.00029771
Ta       8.79144589       6.67393882       9.00956639      -0.00011325       0.00022147       0.00046346
Ta       7.13756999       5.25123818       7.38831478      -0.00051487      -0.00031339      -0.00026250
Ta       9.58134117       5.76023471       6.72749953      -0.00027382       0.00026794      -0.00056724
Ta       5.29685952       9.11792723       8.15050259      -0.00024620       0.00010347       0.00022557
Ta       7.03950423       9.25791244       6.25013405      -0.00000985      -0.00012228       0.00027862
Ta       6.18012051       6.91995048       9.17878742       0.00015676      -0.00009480      -0.00035896
Ta       5.44030963       7.08279850       6.56808872       0.00005985      -0.00027169       0.00040992
Ta       7.77920851       9.09477936       8.86091850       0.00026121       0.00078964      -0.00009034
11
Lattice="30.0 0.0 0.0 0.0 30.0 0.0 0.0 0.0 30.0" Properties=species:S:1:pos:R:3:forces:R:3 config_type=qcd dft_energy=-104.14277102 gap_energy=-103.03899040957323 relaxed_gap_energy=-103.79092856769184 energy=-103.79092856769184 free_energy=-103.79092856769184 pbc="T T T"
Ta       7.16453642       7.34750168      10.62351117      -0.00007739      -0.00006743       0.00025101
Ta       9.06584987       9.05397743      10.02356018      -0.00021649      -0.00016449      -0.00001059
Ta      11.48175728       8.29718663       9.25449831       0.00008371      -0.00002978       0.00011305
Ta       9.46505509       6.48863235       9.51316634       0.00003383      -0.00000514      -0.00002078
Ta      10.53032090      10.37548492       7.74581513       0.00046714       0.00042124      -0.00006032
Ta       8.57406882      11.54131755       9.26719350      -0.00001343       0.00006670       0.00010701
Ta      11.01868269      10.80387044      10.12920302      -0.00002856      -0.00001564      -0.00006965
Ta       9.77965845       7.87156917       7.32145020      -0.00016939      -0.00036808      -0.00009600
Ta       6.55737608       9.73275143       9.52585523       0.00002303       0.00002309      -0.00001596
Ta       7.29880679       7.47748029       8.16029868       0.00028217       0.00026182      -0.00010703
Ta       7.95784210       9.90418260       7.32940274      -0.00038462      -0.00012229      -0.00009073
12
Lattice="30.0 0.0 0.0 0.0 30.0 0.0 0.0 0.0 30.0" Properties=species:S:1:pos:R:3:forces:R:3 config_type=qcd dft_energy=-115.14670988 gap_energy=-114.04009570934107 relaxed_gap_energy=-114.15749372095777 energy=-114.15749372095777 free_energy=-114.15749372095777 pbc="T T T"
Ta      11.14350333       9.55449274      10.08160344      -0.00034678       0.00017767      -0.00044996
Ta       6.76192090       8.35093133       7.82382048       0.00034438      -0.00017793       0.00044901
Ta       7.39299959      10.87696929       8.40405065       0.00051932      -0.00059530      -0.00028219
Ta       7.86237476       6.77967143       9.67761264       0.00001590       0.00060811      -0.00063191
Ta       9.02186807       7.03847405       7.28917627       0.00013339       0.00051793       0.00040037
Ta      10.04304908      11.12575284       8.22781136      -0.00001524      -0.00061079       0.00063246
Ta      10.51242437       7.02845452       9.50137342      -0.00051981       0.00059675       0.00028203
Ta      11.04980994       8.75347214       7.53888830      -0.00049968      -0.00011616       0.00021927
Ta       9.17353712       8.33470745      11.40337488       0.00027345      -0.00005290      -0.00063483
Ta       8.88355591      10.86694990      10.61624767      -0.00013313      -0.00051805      -0.00039994
Ta       6.85561386       9.15195169      10.36653586       0.00050175       0.00011763      -0.00022003
Ta       8.73188706       9.57071663       6.50204901      -0.00027355       0.00005305       0.00063572
13
Lattice="17.622162 0.0 0.0 0.0 17.622162 0.0 0.0 0.0 17.622162" Properties=species:S:1:pos:R:3:forces:R:3 config_type=qcd dft_energy=-124.91258836 gap_energy=-123.8972835936167 relaxed_gap_energy=-124.18681408974521 energy=-124.18681408974521 free_energy=-124.18681408974521 pbc="T T T"
Ta       9.02738804      11.70931539       8.66268130      -0.00013753      -0.00059512       0.00019913
Ta       8.36445580       9.04821692       9.27790224      -0.00010423       0.00052087      -0.00068185
Ta      10.68806310       9.99875782       7.61547335      -0.00051472       0.00037729       0.00012467
Ta       7.57946732       7.11944067      11.08068299      -0.00061383       0.00047231      -0.00021673
Ta       7.03053505       6.65379898       8.62969470      -0.00029672       0.00020301      -0.00030235
Ta       6.55162480       8.64441519       7.16026622       0.00051308      -0.00047658       0.00039449
Ta       9.18377435       7.67020046       7.14347941      -0.00028016       0.00008525       0.00040864
Ta      11.17369980       7.97856210       9.10652378       0.00049099      -0.00011736       0.00034212
Ta       9.37612833       6.19770673       9.49221296       0.00054971      -0.00063624      -0.00020202
Ta       8.40012739      10.25646763       6.49686621      -0.00012628      -0.00037321      -0.00015003
Ta       9.91409398       8.02059862      11.38539438       0.00033316       0.00032298      -0.00033820
Ta       6.65722214      10.95058540       8.25203884       0.00020654       0.00045008       0.00035312
Ta      10.59747290      10.29598712      10.24083662      -0.00002002      -0.00023328       0.00006902
14
Lattice="30.0 0.0 0.0 0.0 30.0 0.0 0.0 0.0 30.0" Properties=species:S:1:pos:R:3:forces:R:3 config_type=qcd dft_energy=-135.77128513 gap_energy=-134.99480747976773 relaxed_gap_energy=-135.2539574078472 energy=-135.2539574078472 free_energy=-135.2539574078472 pbc="T T T"
Ta       9.60093489      11.97026413       7.92046377       0.00056911       0.00041531      -0.00034142
Ta       7.69922074      10.20891243       7.52837740      -0.00029182       0.00003184      -0.00031245
Ta      10.11186035       9.70491202       6.63550375       0.00013599       0.00007972      -0.00009343
Ta      10.01225692       9.68256894       9.37639193      -0.00038550      -0.00024938       0.00016193
Ta       7.71336737      11.59377603       9.70001511      -0.00046675      -0.00021092       0.00008503
Ta      10.13715247      12.17609837      10.51166780      -0.00065248       0.00027241       0.00013581
Ta      11.15916646       7.64572403       7.94180449      -0.00038899      -0.00061879       0.00013009
Ta      11.18377825      10.11665424      11.81812465       0.00008178       0.00004464      -0.00001202
Ta       8.57222963       7.78572766       7.54036551       0.00055476       0.00054954      -0.00025694
Ta      11.69492673       7.85140565      10.53311921       0.00061363       0.00005060      -0.00002408
Ta       8.59999823      10.55515177      11.88374077       0.00076324      -0.00009031      -0.00004793
Ta       7.55064691       8.79862695       9.95573290      -0.00009725      -0.00011168       0.00007622
Ta       9.47291448       8.13194472      11.89571988       0.00006806      -0.00014601       0.00036114
Ta       9.45938250       6.74728094       9.72396214      -0.00050377      -0.00001696       0.00013806
14
Lattice="30.0 0.0 0.0 0.0 30.0 0.0 0.0 0.0 30.0" Properties=species:S:1:pos:R:3:forces:R:3 config_type=qcd dft_energy=-135.72762575 gap_energy=-134.4482979802907 relaxed_gap_energy=-134.625183329507 energy=-134.625183329507 free_energy=-134.625183329507 pbc="T T T"
Ta       9.55032374       9.43697018       9.12383528       0.00048057      -0.00035180       0.00034686
Ta      11.99942521       8.24242795       9.18259347      -0.00032177       0.00005876      -0.00005695
Ta       6.70110494       9.33822410       8.53864724      -0.00000882       0.00017385      -0.00019387
Ta      10.01888634      12.06814399       9.25499192       0.00002562       0.00020659       0.00022570
Ta       7.62389524      11.51770635       9.64930678       0.00022755      -0.00031176       0.00007405
Ta      10.12863631       6.64328434       8.75466813       0.00021969       0.00024454       0.00019228
Ta       7.82053084       7.15763701       9.71023819      -0.00014616      -0.00010448       0.00010906
Ta       9.39378529      10.85444946      11.62213482       0.00004815      -0.00009425       0.00006104
Ta      11.62990787      10.35995339      10.62447405      -0.00009148      -0.00007500      -0.00025798
Ta      10.03436746       8.06558180      11.26187818      -0.00031393       0.00018954      -0.00035362
Ta       7.45187288       9.27017273      11.14868980      -0.00007624      -0.00007545       0.00019689
Ta       8.69200915      10.65806708       7.11049882      -0.00041216       0.00050644      -0.00053278
Ta      10.63525193       8.53593471       6.84985597       0.00033673      -0.00025312      -0.00012023
Ta       8.27203496       7.80347880       7.12021932       0.00003225      -0.00011386       0.00030955
15
Lattice="15.1711193809718 0.0 0.0 0.0 15.1711193809718 0.0 0.0 0.0 15.1711193809718" Properties=species:S:1:pos:R:3:forces:R:3 config_type=qcd dft_energy=-147.21930723 gap_energy=-144.9179895349758 relaxed_gap_energy=-145.02268777542187 energy=-145.02268777542187 free_energy=-145.02268777542187 pbc="T T T"
Ta       8.43252138       5.10048830       7.15043301      -0.00006919      -0.00004137      -0.00018614
Ta       8.58718281       5.70577026       9.69230672       0.00048945       0.00026682      -0.00040717
Ta       9.88024797       6.82518942       5.81597044      -0.00018649       0.00012840       0.00014265
Ta      10.11987791       7.36250656       8.36650722      -0.00016849       0.00014922      -0.00017544
Ta       5.94060231       5.38027125       6.39986165      -0.00013334      -0.00023925       0.00042506
Ta       6.07872638       5.88038008       8.96547345       0.00006245      -0.00009608       0.00031359
Ta       7.40499517       7.02873607       4.98947029      -0.00007100      -0.00035311      -0.00011327
Ta       7.58556126       7.58557398       7.58557643       0.00044877      -0.00041045      -0.00011898
Ta       9.09228687       9.29069607       6.20548090       0.00023079       0.00015795       0.00015508
Ta       5.05122493       7.80849826       6.80472005      -0.00051776       0.00022892      -0.00026266
Ta       6.58364889       9.46533890       5.47897989       0.00053762       0.00015656      -0.00032643
Ta       7.76622736       8.14254628      10.18161096      -0.00008660      -0.00021233       0.00017180
Ta       9.23069937       9.79090261       8.77098090      -0.00019562      -0.00037933       0.00038390
Ta       5.29093844       8.34588092       9.35522897      -0.00006140       0.00005062       0.00007046
Ta       6.73865430      10.07061639       8.02079448      -0.00027919       0.00059344      -0.00007246
16
Lattice="20.44275725027258 0.0 0.0 0.0 20.44275725027258 0.0 0.0 0.0 20.44275725027258" Properties=species:S:1:pos:R:3:forces:R:3 config_type=qcd dft_energy=-156.86598677 gap_energy=-155.82212939452913 relaxed_gap_energy=-156.08493084062906 energy=-156.08493084062906 free_energy=-156.08493084062906 pbc="T T T"
Ta       8.22343885      11.06386886      12.09434811       0.00001975       0.00052287      -0.00008399
Ta       7.94509436       8.86986199      10.56280713       0.00008709      -0.00045126      -0.00028669
Ta      10.35979713       7.38057591      10.76807834       0.00010932       0.00033112       0.00012117
Ta       9.87660458      12.98096390      11.34223073       0.00032420       0.00054110       0.00050660
Ta       8.32428340      11.81129835       9.44470929      -0.00034074       0.00042859      -0.00030586
Ta      10.81123266      11.13463196      12.98688499      -0.00021306      -0.00011843       0.00019853
Ta      10.21558302      10.21637214      10.21394647       0.00069083      -0.00049384       0.00042253
Ta      12.76721173      10.78065594       9.02253590       0.00016554       0.00001987      -0.00019997
Ta      11.96630892       8.35993612       8.85061974      -0.00015589       0.00043611       0.00005291
Ta      12.35192743      12.07422192      11.14740568       0.00026382       0.00001915      -0.00010703
Ta       9.67969833       8.89789418      12.70858720      -0.00026867      -0.00015839       0.00006440
Ta      12.30180607       9.24161829      11.46356053       0.00003785      -0.00024101      -0.00005569
Ta      10.88324119      12.68591366       8.91873694      -0.00003452       0.00036250       0.00023468
Ta      10.45382886      10.39928739       7.56820416      -0.00026817      -0.00030064      -0.00009168
Ta       7.90948071       9.76140575       8.04956874      -0.00003856      -0.00093598      -0.00017968
Ta       9.47252077       7.88355164       8.39983406      -0.00037877       0.00003823      -0.00029025
16
Lattice="20.26985533306811 0.0 0.0 0.0 20.26985533306811 0.0 0.0 0.0 20.26985533306811" Properties=species:S:1:pos:R:3:forces:R:3 config_type=qcd dft_energy=-156.81882907 gap_energy=-156.41419428682318 relaxed_gap_energy=-156.6868246511952 energy=-156.6868246511952 free_energy=-156.6868246511952 pbc="T T T"
Ta      11.31610600      12.86229917       9.88828287      -0.00041532       0.00035364      -0.00021031
Ta      12.11868517      11.32081423      11.81101087       0.00064095      -0.00003741       0.00027590
Ta      12.50985385      10.50179674       9.07645998      -0.00037815      -0.00007604       0.00034021
Ta      10.25992461      11.76241402       7.79247141       0.00003039      -0.00043588      -0.00037006
Ta       9.77515625      12.40477063      12.03567950       0.00024632       0.00013427       0.00035833
Ta      12.33348958       8.86645036      11.44185516       0.00044169      -0.00001165       0.00070852
Ta       8.65477756      12.67092462       9.61325672      -0.00060495       0.00003515       0.00005720
Ta      10.47447217       9.30793722       7.42343832       0.00032627       0.00024705      -0.00015706
Ta      11.75525970       7.84028675       9.13313137       0.00011819      -0.00032979       0.00009862
Ta      10.13496279      10.13492801      10.13496977      -0.00019949       0.00002949      -0.00040764
Ta       7.70400557      11.00324252      11.35478413      -0.00033524      -0.00020221       0.00010759
Ta      10.21464267       7.38262597      11.28076366      -0.00002775      -0.00027462       0.00007591
Ta       9.89721982       9.72589767      12.71783710       0.00092179       0.00000447      -0.00028150
Ta       7.99744861      10.17704647       8.61047825       0.00018290       0.00021014       0.00004398
Ta       9.09400310       7.64871159       8.85837969      -0.00031998      -0.00008471      -0.00021006
Ta       7.91883521       8.54869672      10.98604389      -0.00062762       0.00043811      -0.00042963
17
Lattice="20.50736553375372 0.0 0.0 0.0 20.50736553375372 0.0 0.0 0.0 20.50736553375372" Properties=species:S:1:pos:R:3:forces:R:3 config_type=qcd dft_energy=-167.75019107 gap_energy=-166.89955445331415 relaxed_gap_energy=-167.12084545762985 energy=-167.12084545762985 free_energy=-167.12084545762985 pbc="T T T"
Ta      12.88487405      10.99440787      10.32546566      -0.00060846      -0.00029680      -0.00001276
Ta      12.17715152       9.40144517       8.13937880      -0.00003341      -0.00001184      -0.00024191
Ta      12.44277391       8.23562736      10.43215272       0.00003876      -0.00009314      -0.00010584
Ta      12.02677230       9.50978595      12.53390918      -0.00016928       0.00008309       0.00014029
Ta      10.46646072       7.61174812       8.88570569      -0.00011981       0.00007225      -0.00013077
Ta       9.47199819       9.91717650       7.65518055       0.00042689      -0.00013873       0.00031785
Ta      11.32968665      11.99731960      12.42133136      -0.00036250      -0.00028942       0.00000639
Ta      11.50503437      11.79946414       8.03079426      -0.00014283       0.00029011       0.00002130
Ta      11.07363706      13.12120457      10.21101297      -0.00039211      -0.00021253      -0.00009731
Ta       8.14518913       8.28445699       9.49661702      -0.00021663       0.00026766       0.00019334
Ta       9.93073413       7.90394140      11.61426937       0.00024710       0.00043872      -0.00028647
Ta       9.09710864      12.49740244       8.66461863       0.00070221      -0.00035128       0.00017543
Ta       9.61885802      10.20755300      13.16770946       0.00034570       0.00020561      -0.00018969
Ta       8.72707022      12.19923141      11.41981284      -0.00030964       0.00042521       0.00027001
Ta      10.25369922      10.25367919      10.25368910       0.00003556      -0.00014938      -0.00015582
Ta       7.71361734       9.60610715      11.67689193       0.00010258       0.00022831      -0.00032159
Ta       7.44794157      10.77205616       9.38406751       0.00045587      -0.00046783       0.00041755
18
Lattice="20.59958691418999 0.0 0.0 0.0 20.59958691418999 0.0 0.0 0.0 20.59958691418999" Properties=species:S:1:pos:R:3:forces:R:3 config_type=qcd dft_energy=-178.41179995 gap_energy=-176.48043849460657 relaxed_gap_energy=-176.84153574025424 energy=-176.84153574025424 free_energy=-176.84153574025424 pbc="T T T"
Ta      11.39458003      10.04275462      12.76691063      -0.00052112      -0.00010111      -0.00018872
Ta       8.84659890       9.22358328      12.71399675      -0.00026001      -0.00000962       0.00024471
Ta       9.18734818      11.71173153      12.85466768       0.00054549      -0.00019613       0.00041326
Ta      11.36996073      12.69565968      11.93914073       0.00056865       0.00040376       0.00016861
Ta      10.48635236       7.74814456      11.19732136      -0.00027123       0.00033146       0.00025818
Ta       7.62523387      11.02601451      10.78572171      -0.00044384       0.00006106       0.00016775
Ta       9.19529335      13.19724799      10.67842047       0.00048421       0.00027264      -0.00034876
Ta      13.19103800      11.31890721      11.00591499      -0.00006793      -0.00016709      -0.00005573
Ta      12.94683462       8.78048835      10.98922125      -0.00029969       0.00001314       0.00016214
Ta      10.34468521      10.28758701      10.29164125       0.00067013       0.00009231       0.00004410
Ta      10.49941525      10.20534848       7.59749860      -0.00022946       0.00039710       0.00016204
Ta       7.87025186       9.84954767       8.38848489       0.00026923       0.00000123      -0.00057702
Ta      11.90145020       8.06079383       8.77728104       0.00017060       0.00008794       0.00008041
Ta       8.86224351      12.16089742       8.41083062      -0.00026579       0.00020453      -0.00008951
Ta      11.40765103      12.49998364       9.16709369      -0.00048998      -0.00019942      -0.00009180
Ta      12.95533245      10.37938184       8.64683352      -0.00027475       0.00010873       0.00003811
Ta       7.86232381       8.36407811      10.56476109       0.00030446      -0.00060199       0.00019296
Ta       9.44968887       7.84413249       8.62054194       0.00011105      -0.00069857      -0.00058071
19
Lattice="20.86347297617478 0.0 0.0 0.0 20.86347297617478 0.0 0.0 0.0 20.86347297617478" Properties=species:S:1:pos:R:3:forces:R:3 config_type=qcd dft_energy=-187.59195133 gap_energy=-185.86322609703086 relaxed_gap_energy=-186.53602818466496 energy=-186.53602818466496 free_energy=-186.53602818466496 pbc="T T T"
Ta      12.06999498       7.56632101      10.10222978       0.00029961      -0.00009142       0.00001076
Ta       9.33606473       7.88941641      10.06405045       0.00010500       0.00005453       0.00002715
Ta      10.86617494       8.33591683       7.89901628      -0.00019679      -0.00007091      -0.00015853
Ta      13.09688176       9.41440424       8.56495385       0.00015283       0.00020391       0.00004567
Ta       8.79411041       9.81162468      12.09020929       0.00021635      -0.00002163       0.00021585
Ta      10.97454005       8.25107201      12.28678163      -0.00046202      -0.00011310      -0.00019750
Ta       7.21303962       9.64206059       9.99026429       0.00010092      -0.00028269      -0.00015670
Ta       8.73839744       9.67960983       7.90742499       0.00011753      -0.00009400       0.00046707
Ta      13.14555867       9.73288993      11.34133848       0.00021069      -0.00004525      -0.00004988
Ta      12.48579702      12.39470678      11.67130861      -0.00021524       0.00015215       0.00046012
Ta       9.79812084      12.68662248      11.75753771       0.00006032      -0.00043840       0.00015638
Ta      11.07278513      13.19979527       9.47941039      -0.00010463      -0.00012716       0.00011039
Ta      13.23759503      11.77331175       9.33333118       0.00002991      -0.00029016      -0.00036536
Ta       8.59267379      11.84580424      13.77157343       0.00031264       0.00004427      -0.00038847
Ta      11.14118015      10.73348025      13.17070383      -0.00021615       0.00011190       0.00006012
Ta       7.15216660      11.87720862      11.51327960      -0.00008345       0.00074772      -0.00013749
Ta       8.69702748      11.89064758       9.33511286      -0.00010393      -0.00021874      -0.00008707
Ta      10.72525490      10.33518583      10.22405616      -0.00000573       0.00012669       0.00006150
Ta      11.06562975      11.14291493       7.70041045      -0.00021786       0.00035231      -0.00007401
20
Lattice="22.33173573316469 0.0 0.0 0.0 22.33173573316469 0.0 0.0 0.0 22.33173573316469" Properties=species:S:1:pos:R:3:forces:R:3 config_type=qcd dft_energy=-198.61730421 gap_energy=-197.29316451694422 relaxed_gap_energy=-197.532253311038 energy=-197.532253311038 free_energy=-197.532253311038 pbc="T T T"
Ta      11.63697571      11.68637766       7.55278223       0.00017533       0.00013953       0.00013393
Ta       9.19265905      11.18747199       8.06951392      -0.00021222      -0.00006976       0.00021523
Ta      11.12469201       9.47414310       9.23125614       0.00001372       0.00014827      -0.00012009
Ta       9.91188086      13.75902226       8.22315506      -0.00062205       0.00012226      -0.00024128
Ta       9.66752744      14.51602125      10.88563009       0.00011041       0.00004077      -0.00004494
Ta      11.07549237      12.35400078      10.10372736       0.00029498      -0.00020285       0.00027557
Ta       8.10104877      12.75588391       9.91683334      -0.00010341      -0.00033605      -0.00009913
Ta      13.41963480      10.75076683       9.60436565       0.00008915      -0.00013700       0.00003467
Ta       8.97102522      10.20001549      10.68890229       0.00057423       0.00004577       0.00028985
Ta      14.43755336      10.08149965      12.19370813      -0.00015808      -0.00007969       0.00028431
Ta      13.03994401       8.33011731      10.97593124       0.00021794       0.00018506       0.00004467
Ta      11.56646477      13.41322315      12.74036247       0.00012445      -0.00002618       0.00013518