3
Lattice="15.15661929462309 0.0 0.0 0.0 15.15661929462309 0.0 0.0 0.0 15.15661929462309" Properties=species:S:1:pos:R:3:forces:R:3 config_type=qcd dft_energy=-7.8111989 gap_energy=-8.063046052580365 relaxed_gap_energy=-8.0909899546571 energy=-8.0909899546571 free_energy=-8.0909899546571 pbc="T T T"
Te       9.61740577       8.34250721      10.62474144      -0.00000791       0.00008135      -0.00008130
Te       9.01665340       9.10188945       7.98333587       0.00008762       0.00014432       0.00021892
Te       9.88761270      11.02993005       9.83776360      -0.00007971      -0.00022568      -0.00013763
4
Lattice="15.56331461795246 0.0 0.0 0.0 15.56331461795246 0.0 0.0 0.0 15.56331461795246" Properties=species:S:1:pos:R:3:forces:R:3 config_type=qcd dft_energy=-10.65267674 gap_energy=-11.544405286475897 relaxed_gap_energy=-11.789109306819359 energy=-11.789109306819359 free_energy=-11.789109306819359 pbc="T T T"
Te       9.61732881       7.15911307       9.50034259       0.00008274       0.00000781      -0.00030487
Te      10.11794212       8.92002920       7.37477430      -0.00016895       0.00002785       0.00031577
Te       7.54911498      10.00748844       7.67075569       0.00011227      -0.00022269      -0.00007991
Te       7.04801771       8.24550502       9.79525605      -0.00002606       0.00018703       0.00006902
4
Lattice="15.44054657214129 0.0 0.0 0.0 15.44054657214129 0.0 0.0 0.0 15.44054657214129" Properties=species:S:1:pos:R:3:forces:R:3 config_type=qcd dft_energy=-10.63915067 gap_energy=-10.646852375227201 relaxed_gap_energy=-10.86192160963655 energy=-10.86192160963655 free_energy=-10.86192160963655 pbc="T T T"
Te       8.33778948       6.51335226       7.87857331       0.00058630       0.00000836       0.00027138
Te       5.81639304       6.17719893       8.52271972      -0.00063574      -0.00021246      -0.00013633
Te       8.07807167       8.77857499       5.94909298      -0.00039579      -0.00001491      -0.00060054
Te       8.64883895       9.41196696       8.53070712       0.00044522       0.00021901       0.00046549
5
Lattice="17.06889994350783 0.0 0.0 0.0 17.06889994350783 0.0 0.0 0.0 17.06889994350783" Properties=species:S:1:pos:R:3:forces:R:3 config_type=qcd dft_energy=-14.50186539 gap_energy=-14.840498904605829 relaxed_gap_energy=-14.972983445248856 energy=-14.972983445248856 free_energy=-14.972983445248856 pbc="T T T"
Te      10.29443814       8.69540404      10.01832456       0.00034708      -0.00022259       0.00018837
Te       9.61555609       6.50258963       8.49081504      -0.00017824       0.00043402      -0.00011211
Te       8.08316460       7.59605433       6.47611441      -0.00024565       0.00052571       0.00078508
Te       8.05542942      10.30282596       9.96485459       0.00004361      -0.00034120      -0.00030594
Te       6.62366161       9.57537592       7.72214126       0.00003320      -0.00039594      -0.00055540
6
Lattice="20.27469523433045 0.0 0.0 0.0 20.27469523433045 0.0 0.0 0.0 20.27469523433045" Properties=species:S:1:pos:R:3:forces:R:3 config_type=qcd dft_energy=-17.70950253 gap_energy=-17.943752633081942 relaxed_gap_energy=-17.971229722105775 energy=-17.971229722105775 free_energy=-17.971229722105775 pbc="T T T"
Te       9.86947799       7.59018791       9.82483159      -0.00079524       0.00009272       0.00019575
Te       8.40886271      11.59387210       8.89175606       0.00052288      -0.00008749      -0.00028342
Te      12.56519746      11.00715901      10.07763529       0.00038684       0.00038764       0.00049672
Te      10.40750269      12.68469974      10.44888171      -0.00050775      -0.00008700      -0.00010525
Te       7.70954024       9.26564417      10.19464495      -0.00015457      -0.00015695       0.00024056
Te      11.86350461       8.68252278      11.38633610       0.00054783      -0.00014892      -0.00054435
7
Lattice="20.83112384738925 0.0 0.0 0.0 20.83112384738925 0.0 0.0 0.0 20.83112384738925" Properties=species:S:1:pos:R:3:forces:R:3 config_type=qcd dft_energy=-20.75621173 gap_energy=-20.92068328732728 relaxed_gap_energy=-20.96643719156453 energy=-20.96643719156453 free_energy=-20.96643719156453 pbc="T T T"
Te      10.15471122      13.06127261       9.65323844       0.00014401      -0.00026905      -0.00003202
Te       8.61720069      12.56135234      11.88801071      -0.00004453      -0.00055699      -0.00034172
Te      12.47176654      11.62502550      10.07404392       0.00016025       0.00051714       0.00016402
Te      12.37679171       9.59718167       8.20675039      -0.00057209       0.00021021       0.00073744
Te      10.39250725       8.57829767      11.95603271       0.00024129       0.00013240      -0.00033717
Te       7.97687560       9.88479962      11.69984354       0.00002538       0.00073597       0.00031452
Te      10.91908046       7.60100406       9.43101375       0.00004568      -0.00076969      -0.00050507
8
Lattice="21.28515422156841 0.0 0.0 0.0 21.28515422156841 0.0 0.0 0.0 21.28515422156841" Properties=species:S:1:pos:R:3:forces:R:3 config_type=qcd dft_energy=-23.96495516 gap_energy=-23.94320420723504 relaxed_gap_energy=-23.961643130047733 energy=-23.961643130047733 free_energy=-23.961643130047733 pbc="T T T"
Te      13.29658323       8.95516658      11.03157088       0.00008809       0.00037754       0.00066265
Te      13.54855964      11.66989627      11.45147150       0.00013630      -0.00021831      -0.00035688
Te      12.06320548       8.74839492       8.57335718      -0.00031275       0.00009497      -0.00043524
Te      11.50727835      12.29095541      13.19917297      -0.00038737      -0.00008974      -0.00002896
Te       9.44450161       8.11563071       9.16592709       0.00001641       0.00003739       0.00028021
Te       8.06131381      10.47078828       8.78199943      -0.00001776       0.00031980       0.00007144
Te       9.56180159      13.43218740      11.61103402       0.00046840       0.00005709       0.00007078
Te       7.65737317      11.45759731      11.32608382       0.00000867      -0.00057873      -0.00026399
9
Lattice="17.69702115682924 0.0 0.0 0.0 17.69702115682924 0.0 0.0 0.0 17.69702115682924" Properties=species:S:1:pos:R:3:forces:R:3 config_type=qcd dft_energy=-26.78526726 gap_energy=-26.93356135865529 relaxed_gap_energy=-26.956846994002674 energy=-26.956846994002674 free_energy=-26.956846994002674 pbc="T T T"
Te      11.07496500       8.32659861      10.83330487      -0.00005483       0.00041502      -0.00026517
Te       8.80464967      12.05127185       7.74094079      -0.00029134       0.00003388       0.00055514
Te      12.31482935       9.67844958       8.77322465       0.00030455      -0.00062766       0.00015584
Te      10.35723514       9.95310253       6.84951085       0.00064563      -0.00026167      -0.00017955
Te       7.28272422      10.96696834       9.77006045      -0.00037533       0.00051772      -0.00033023
Te      10.26401424       5.94311064       9.70676219      -0.00023126       0.00026811      -0.00034563
Te       6.67544965       7.23747779       7.59159633       0.00031354      -0.00023089       0.00018678
Te       5.34972237       9.49199603       8.46773007      -0.00048519      -0.00002163       0.00029978
Te       7.51300554       5.98761983       9.90346502       0.00017423      -0.00009287      -0.00007698
10
Lattice="20.11208984384615 0.0 0.0 0.0 20.11208984384615 0.0 0.0 0.0 20.11208984384615" Properties=species:S:1:pos:R:3:forces:R:3 config_type=qcd dft_energy=-29.8060484 gap_energy=-29.86987846705286 relaxed_gap_energy=-29.952053408183314 energy=-29.952053408183314 free_energy=-29.952053408183314 pbc="T T T"
Te       8.47697122      10.49449607       6.70385794      -0.00047635      -0.00000302       0.00031233
Te      12.53262875      11.74555035       7.70928246      -0.00031701       0.00019004      -0.00043461
Te       9.98718073      12.72504019       7.29617865       0.00040285       0.00039545      -0.00028722
Te       6.58893429      10.38732338       8.71219800       0.00021182      -0.00042450      -0.00032605
Te       6.88595784       7.87186349       9.80396888      -0.00013415      -0.00001870      -0.00001151
Te      13.05796152      12.28794743      10.36194412       0.00032044      -0.00045627       0.00048072
Te       7.60072563       8.33800108      12.42707172      -0.00097655       0.00014373       0.00003608
Te      13.58625406       9.82125290      11.47838145       0.00051584       0.00024880      -0.00052243
Te      10.17217220       7.36097323      12.62597263       0.00075930      -0.00004548      -0.00004383
Te      11.67166297       9.52800110      13.44159336      -0.00030618      -0.00003007       0.00079651
10
Lattice="22.80933164859397 0.0 0.0 0.0 22.80933164859397 0.0 0.0 0.0 22.80933164859397" Properties=species:S:1:pos:R:3:forces:R:3 config_type=qcd dft_energy=-29.76187831 gap_energy=-29.87808863621277 relaxed_gap_energy=-29.95205419075599 energy=-29.95205419075599 free_energy=-29.95205419075599 pbc="T T T"
Te      15.04477393      11.38416609      10.02563632      -0.00008528      -0.00021604      -0.00001607
Te       7.76456332      11.38415255      12.78369393       0.00008216      -0.00021861       0.00003457
Te      12.91196702       9.82866459      13.49798894      -0.00013517      -0.00008131       0.00000802
Te       9.89735313       9.82866796       9.31132985       0.00014808      -0.00007888      -0.00001908
Te      11.40467117      11.40466086      15.18701574      -0.00000764       0.00000532      -0.00043261
Te      11.40467137      11.40466797       7.62231589      -0.00000999      -0.00000829       0.00043295
Te       7.76456442      11.42518132      10.02563899       0.00008493       0.00021686      -0.00003473
Te      15.04477293      11.42516653      12.78369400      -0.00008880       0.00021371       0.00001654
Te       9.89735181      12.98066377      13.49800656       0.00014877       0.00008233       0.00001764
Te      12.91196914      12.98066660       9.31133801      -0.00013706       0.00008491      -0.00000723
10
Lattice="19.9937785034697 0.0 0.0 0.0 19.9937785034697 0.0 0.0 0.0 19.9937785034697" Properties=species:S:1:pos:R:3:forces:R:3 config_type=qcd dft_energy=-29.76159299 gap_energy=-29.884092574830124 relaxed_gap_energy=-29.952053132673637 energy=-29.952053132673637 free_energy=-29.952053132673637 pbc="T T T"
Te      11.06315442       8.63038496       6.57396727      -0.00062532      -0.00002751       0.00031452
Te       8.83091984       7.66995955       7.87929204       0.00050099       0.00011759      -0.00032420
Te      13.09718994       8.39903471       8.42248444      -0.00025421       0.00023143       0.00066017
Te       6.97016076       9.69261174       7.64464811       0.00035193      -0.00061083      -0.00027628
Te       8.05251416      11.79330812       9.06701238      -0.00015218       0.00093245      -0.00020796
Te      13.00942756      10.76075698       9.84489314      -0.00019634      -0.00018724       0.00033097
Te       6.85950103      11.63354610      11.54880735       0.00056746      -0.00030862       0.00019507
Te      12.83319766       9.97314778      12.48258032      -0.00021631      -0.00022017      -0.00088345
Te      10.75150450      11.46269471      13.51040174       0.00054687       0.00047336      -0.00003287
Te       8.50132267       9.95344786      12.99480575      -0.00052289      -0.00040047       0.00022404
11
Lattice="23.0077652916124 0.0 0.0 0.0 23.0077652916124 0.0 0.0 0.0 23.0077652916124" Properties=species:S:1:pos:R:3:forces:R:3 config_type=qcd dft_energy=-32.76612496 gap_energy=-32.88070690915484 relaxed_gap_energy=-32.947257037926065 energy=-32.947257037926065 free_energy=-32.947257037926065 pbc="T T T"
Te      11.50388392      11.50388045      15.37647210      -0.00000008       0.00000004       0.00078241
Te      10.01290838      13.09674917      13.68900348      -0.00027847      -0.00069807      -0.00052907
Te      12.99485411       9.91101844      13.68899253       0.00027837       0.00069805      -0.00052930
Te      11.59154910      15.31741071      13.25914782       0.00030989      -0.00054659       0.00018285
Te      11.41621676       7.69035349      13.25914185      -0.00030982       0.00054633       0.00018339
Te      13.58302325      14.43054110      11.56928786       0.00013252       0.00013070      -0.00042242
Te       9.42474023       8.57721576      11.56928097      -0.00013221      -0.00013086      -0.00042233
Te      12.46554440      14.57216032       9.05136136      -0.00002162       0.00007994       0.00030991
Te      10.54222464       8.43560810       9.05135621       0.00002129      -0.00007975       0.00030984
Te      12.77653548      12.03526164       8.01433041       0.00035158      -0.00007460       0.00006755
Te      10.23122882      10.97250994       8.01433454      -0.00035145       0.00007481       0.00006717
11
Lattice="19.89161527946191 0.0 0.0 0.0 19.89161527946191 0.0 0.0 0.0 19.89161527946191" Properties=species:S:1:pos:R:3:forces:R:3 config_type=qcd dft_energy=-32.72258505 gap_energy=-32.87338036543363 relaxed_gap_energy=-32.947257760985934 energy=-32.947257760985934 free_energy=-32.947257760985934 pbc="T T T"
Te       7.96046713      11.06127288      10.86054803      -0.00000055       0.00005231      -0.00006321
Te       7.40890680      11.04275456      13.56313641       0.00044331       0.00005526      -0.00023228
Te       8.91557879       8.52797378      10.33343601       0.00008563      -0.00042671      -0.00019904
Te      13.15504039      13.57486034      12.79663287       0.00036834       0.00003691      -0.00019273
Te       9.31261048      12.70627735      14.66632901      -0.00072056      -0.00002438       0.00066404
Te      11.59688364       8.65428147      10.96831679      -0.00002324       0.00054940      -0.00017497
Te      12.20787403      13.65794056      10.20733689      -0.00004777       0.00033099       0.00019619
Te      12.89507177       8.16502020       8.58432573       0.00022351       0.00071064       0.00016182
Te      11.72083721      11.54367533      13.99059031      -0.00002472      -0.00003024       0.00007783
Te      12.71313198      10.54242676       7.19742150      -0.00051814      -0.00039064      -0.00024745
Te      14.13110423      12.34715900       8.72716551       0.00021419      -0.00086353       0.00000982
12
Lattice="24.3588546558846 0.0 0.0 0.0 24.3588546558846 0.0 0.0 0.0 24.3588546558846" Properties=species:S:1:pos:R:3:forces:R:3 config_type=qcd dft_energy=-35.8980386 gap_energy=-35.92206133474186 relaxed_gap_energy=-35.94246515952843 energy=-35.94246515952843 free_energy=-35.94246515952843 pbc="T T T"
Te      14.36034373      15.95709716      12.18059911       0.00011091      -0.00012874       0.00024660
Te      16.54069442      12.17942432      12.17942742       0.00044429       0.00000809       0.00000456
Te      14.36033975       8.40176215      12.17823657       0.00010003       0.00012786      -0.00023999
Te       9.99851157       8.40175699      12.17825675      -0.00011317       0.00013079      -0.00024937
Te       7.81816058      12.17942933      12.17942609      -0.00044605      -0.00000366      -0.00000012
Te       9.99851486      15.95709219      12.18061771      -0.00010146      -0.00012773       0.00024155
Te       9.50698668      13.72210664      13.72075966       0.00025840       0.00038876       0.00024089
Te      14.85187272      13.72211793      13.72075201      -0.00025317       0.00038413       0.00023980
Te      12.17942737       9.09189898      13.71941405       0.00001248       0.00010002       0.00040153
Te      14.85186872      10.63674800      10.63809523      -0.00025998      -0.00038954      -0.00024236
Te      12.17942637      15.26695621      10.63944055      -0.00000920      -0.00010011      -0.00040177
Te       9.50698117      10.63673803      10.63810279       0.00025691      -0.00038988      -0.00024132
13
Lattice="23.84871505817285 0.0 0.0 0.0 23.84871505817285 0.0 0.0 0.0 23.84871505817285" Properties=species:S:1:pos:R:3:forces:R:3 config_type=qcd dft_energy=-38.75451899 gap_energy=-38.8433419565947 relaxed_gap_energy=-38.93767019674618 energy=-38.93767019674618 free_energy=-38.93767019674618 pbc="T T T"
Te      14.82224082      10.73373980       8.31438477      -0.00037057       0.00005392      -0.00020941
Te      15.40972988       9.19303919      10.52561973      -0.00031829      -0.00021334      -0.00038931
Te      12.20004467      10.11763352       7.72032766       0.00025041      -0.00019491      -0.00023903
Te      16.40363888      10.98607036      12.37072466       0.00001765       0.00048653       0.00071987
Te      10.75789708      11.10398753       9.85462482       0.00017255      -0.00012544       0.00031941
Te      13.47538900      11.36493437      15.58098131       0.00076094       0.00048084      -0.00013449
Te      11.05129504      10.14587459      15.08599886      -0.00020117      -0.00070670      -0.00031916
Te      14.20662600      12.45756479      13.15605246       0.00013741      -0.00040607       0.00022165
Te      10.14744068      13.69615082       9.13635697       0.00010084       0.00035308       0.00005498
Te      10.85708290      15.20627966      11.33285200      -0.00022808      -0.00007238      -0.00017488
Te       9.17209958      12.05911198      15.73067007      -0.00058324       0.00025316      -0.00006253
Te       7.94197556      12.65325990      13.33422070       0.00013366      -0.00002922       0.00048480
Te       8.57118779      15.29900137      12.87383390       0.00012789       0.00012052      -0.00027189
13
Lattice="25.0485417944982 0.0 0.0 0.0 25.0485417944982 0.0 0.0 0.0 25.0485417944982" Properties=species:S:1:pos:R:3:forces:R:3 config_type=qcd dft_energy=-38.73157506 gap_energy=-38.86315608286397 relaxed_gap_energy=-38.9376703427296 energy=-38.9376703427296 free_energy=-38.9376703427296 pbc="T T T"
Te       8.64200589      10.97525895      10.57625827       0.00002442       0.00039328      -0.00011654
Te       9.85123451       9.57672607      12.62294825       0.00043721      -0.00068900      -0.00006022
Te       8.90646144      15.24533499      11.42481440       0.00010845       0.00021557       0.00000490
Te      11.50477899       7.77605055      11.34498021      -0.00056891      -0.00001167       0.00027760
Te      10.25850191      13.17809924      10.19747685      -0.00010233       0.00008556      -0.00009464
Te      10.24918767      15.63288296      13.80291560       0.00002318      -0.00015948       0.00010331
Te      12.27915540      17.39033917      13.17162058       0.00005414      -0.00011652      -0.00011010
Te      13.78028817       9.22151344      10.76228145       0.00033526       0.00003894       0.00022057
Te      14.82843506      10.98948883      14.60901892      -0.00001844       0.00023321       0.00020993
Te      15.40977481       8.85777124      12.95817865      -0.00007142       0.00004687      -0.00038004
Te      14.48347413      16.40727616      14.50700181      -0.00019861       0.00005595      -0.00001196
Te      15.74051771      14.78542699      12.66377433      -0.00005474      -0.00005509      -0.00005922
Te      16.88170598      12.77935305      14.17425235       0.00003179      -0.00003762       0.00001643
13
Lattice="23.39617936667465 0.0 0.0 0.0 23.39617936667465 0.0 0.0 0.0 23.39617936667465" Properties=species:S:1:pos:R:3:forces:R:3 config_type=qcd dft_energy=-38.7289467 gap_energy=-38.82448940119419 relaxed_gap_energy=-38.9376691689218 energy=-38.9376691689218 free_energy=-38.9376691689218 pbc="T T T"
Te      13.59544231      10.28888119       7.32040553      -0.00012518      -0.00035110      -0.00018214
Te      14.78162691       9.01265072      11.31860418      -0.00079228       0.00027286      -0.00019842
Te      13.68358341      12.99589963       7.84198398      -0.00038151      -0.00022389       0.00026453
Te      14.21518979      10.79092815      13.34968004       0.00080504       0.00029104      -0.00011768
Te      12.60058237       9.17019018       9.63714386       0.00079080       0.00033685      -0.00026046
Te      11.03632578      13.75744102       7.98663063       0.00035809       0.00011275       0.00012598
Te      11.43644935      14.52946660      12.26059546       0.00057301      -0.00004618      -0.00017103
Te      13.11890135       9.23329489      15.34458927       0.00040587      -0.00027866       0.00031076
Te      11.00518198      15.79353969       9.84715900      -0.00017328      -0.00009431      -0.00010887
Te       9.01820918      14.70751520      13.57498928      -0.00062855       0.00055547      -0.00019942
Te      10.52587496       8.78169342      14.51988212      -0.00052548      -0.00024597      -0.00001312
Te       9.08111529      10.85740604      15.62087538      -0.00056441      -0.00039371       0.00033596
Te       7.97668318      12.15625915      13.45262715       0.00025787       0.00006485       0.00021390
13
Lattice="24.32933569922236 0.0 0.0 0.0 24.32933569922236 0.0 0.0 0.0 24.32933569922236" Properties=species:S:1:pos:R:3:forces:R:3 config_type=qcd dft_energy=-38.71429641 gap_energy=-38.8395586558694 relaxed_gap_energy=-38.937670151665216 energy=-38.937670151665216 free_energy=-38.937670151665216 pbc="T T T"
Te      15.75131455      10.11904198      12.00410137      -0.00025966       0.00022700      -0.00023902
Te      14.40773291      12.28522081      10.94963799       0.00008030      -0.00052276       0.00050885
Te      14.62480472      11.96892032       8.21830919      -0.00009672      -0.00001465      -0.00026939
Te      14.28619287      10.25576276      16.10964752      -0.00015712      -0.00038254      -0.00021139
Te      13.93181203       8.94171400      13.71027908       0.00027200       0.00021502       0.00006877
Te      13.49859817      12.84907884      15.59817940      -0.00011504       0.00048198       0.00016825
Te      10.89926905      12.97428358      16.51305419       0.00043206      -0.00010026       0.00038870
Te      12.20956119      10.87653003       7.45550729       0.00002843       0.00010440      -0.00003828
Te      10.45822240      15.35467633      11.19675948       0.00037896       0.00029051      -0.00055653
Te       9.35751990      12.47470000      14.28135266      -0.00030487      -0.00013201      -0.00013878
Te       8.72334477      14.97627111      13.30714735      -0.00047591       0.00002342       0.00046697
Te      10.55057956      11.28918880       9.62019287       0.00029650      -0.00058909       0.00021726
Te       9.44172992      13.77529348       9.17651366      -0.00007894       0.00039898      -0.00036543
14
Lattice="25.18254204267923 0.0 0.0 0.0 25.18254204267923 0.0 0.0 0.0 25.18254204267923" Properties=species:S:1:pos:R:3:forces:R:3 config_type=qcd dft_energy=-41.62574099 gap_energy=-41.83232565186017 relaxed_gap_energy=-41.9328741078949 energy=-41.9328741078949 free_energy=-41.9328741078949 pbc="T T T"
Te      14.34184571      12.74205916       9.60406033       0.00004015      -0.00028701       0.00048339
Te      11.66987631      13.01306237       8.97562403      -0.00010803       0.00003866      -0.00037321
Te      12.40734412      17.33213074      12.54404850       0.00029775       0.00018879       0.00076997
Te      12.28424744       8.69552163       9.09389145      -0.00007393       0.00089142      -0.00008228
Te      10.51191119      10.66832912       9.85261085       0.00013366      -0.00034477       0.00020089
Te      14.91127634      16.25201241      12.12980477       0.00000237      -0.00054961      -0.00061243
Te      14.51288007      13.52490849      12.24349172       0.00026244       0.00009607      -0.00040558
Te      14.01300427       9.30916831      13.05124639      -0.00050744       0.00060916       0.00047138
Te      13.01966518      14.97384114      16.16157225      -0.00043997      -0.00000304       0.00014493
Te      12.15115487      17.44187590      15.28840238      -0.00045685       0.00020525      -0.00011288
Te      12.89052716       7.37410374      11.43788609      -0.00010907      -0.00042765       0.00019871
Te      10.66361937      11.80252275      14.31397761      -0.00010366       0.00020699      -0.00027709
Te      12.19238911       9.64437915      15.09644334       0.00055343      -0.00044496      -0.00017461
Te      10.70805315      13.50387940      16.48473460       0.00050915      -0.00017929      -0.00023119
15
Lattice="30.0 0.0 0.0 0.0 30.0 0.0 0.0 0.0 30.0" Properties=species:S:1:pos:R:3:forces:R:3 config_type=qcd dft_energy=-44.99189307 gap_energy=-44.86718359696051 relaxed_gap_energy=-44.98415002427402 energy=-44.98415002427402 free_energy=-44.98415002427402 pbc="T T T"
Te      11.88805342      11.06976123       7.31605553      -0.00011671       0.00001168       0.00000541
Te       8.07457365       9.20751710       8.25275730      -0.00044264       0.00030994       0.00045173
Te      11.56088293       6.90586768       7.01409875       0.00000065      -0.00045496       0.00045483
Te      13.94286150      10.04782040       8.89466685      -0.00002041       0.00023362      -0.00016058
Te       9.77439937      11.35491794       9.06669877      -0.00004238       0.00022487      -0.00001963
Te       9.51371214       6.98520844       8.89487868       0.00015370       0.00018805       0.00042105
Te      13.84374846       7.26886042       8.47557166       0.00021209       0.00027351      -0.00025592
Te      11.06578553      14.02112344      10.45963531       0.00032428      -0.00006697       0.00001602
Te       6.98516047      12.68398223      11.28298785      -0.00023140       0.00015836      -0.00068573
Te       8.76752082      14.66584998      11.93149098       0.00031677       0.00000884       0.00025643
Te      12.18605879       9.96463028      11.65519349      -0.00006985      -0.00017425       0.00003608
Te      12.68342831      12.61354073      12.24210776       0.00025473       0.00010448      -0.00004960
Te       8.15327344       8.80926884      12.91781607      -0.00006657      -0.00005598      -0.00003930
Te       6.79940832      11.13818637      13.56176214      -0.00056500      -0.00042920      -0.00025445
Te      10.66016282       9.16249490      13.93330881       0.00029272      -0.00033200      -0.00017632
15
Lattice="30.0 0.0 0.0 0.0 30.0 0.0 0.0 0.0 30.0" Properties=species:S:1:pos:R:3:forces:R:3 config_type=qcd dft_energy=-44.96204231 gap_energy=-44.89653747125813 relaxed_gap_energy=-44.96798866781472 energy=-44.96798866781472 free_energy=-44.96798866781472 pbc="T T T"
Te       9.98501201       8.37631082       6.96442486       0.00017821       0.00011184       0.00023962
Te      11.25625095      10.71449740       7.70706983       0.00032238      -0.00056153      -0.00008832
Te      11.79159098      13.38622318      12.15894074       0.00009252       0.00002694      -0.00002671
Te       8.75531296       7.50010080       9.28015419      -0.00014838      -0.00003038      -0.00003788
Te      13.92467664      10.09345130       7.67669967      -0.00058795       0.00024347       0.00001353
Te      14.05196104      13.79540708      10.59864975       0.00024246      -0.00015400       0.00020473
Te      11.51443922      10.12354598      11.43193962      -0.00011722       0.00004925      -0.00003002
Te      14.50172393       9.47072798      10.35964234       0.00028234       0.00010262      -0.00032244
Te      10.75873015       7.42033695      11.14389313       0.00013487      -0.00007105       0.00018095
Te      11.29982655      15.91380313      13.21748386       0.00006888       0.00016673       0.00000543
Te      15.74797462      11.78998867      11.35842464      -0.00009626       0.00005320      -0.00004114
Te      10.46214310      15.41719724      15.78990601      -0.00007126      -0.00020419       0.00019635
Te       8.92512477      11.10883606      12.22031854      -0.00023657       0.00004242      -0.00020031
Te       9.15902602      11.34125521      14.92244063      -0.00002490       0.00021782      -0.00022080
Te       8.19522338      13.87733449      15.49902851      -0.00003912       0.00000684       0.00012702
16
Lattice="21.44227829926307 0.0 0.0 0.0 21.44227829926307 0.0 0.0 0.0 21.44227829926307" Properties=species:S:1:pos:R:3:forces:R:3 config_type=qcd dft_energy=-47.4056104 gap_energy=-47.41690190106118 relaxed_gap_energy=-48.07881722014288 energy=-48.07881722014288 free_energy=-48.07881722014288 pbc="T T T"
Te       5.81432572      12.00102992      11.14064816      -0.00007169       0.00002787       0.00016091
Te       6.90965951       8.68942821       8.76461440      -0.00004740       0.00024121      -0.00005521
Te       7.26740017      13.71628541       9.64181593       0.00026758      -0.00003692      -0.00002969
Te       9.72861854      13.92471433      11.05165391      -0.00004490      -0.00020243       0.00038454
Te       8.13678171      10.37458328       7.01181048       0.00048033      -0.00009721      -0.00025220
Te       7.63292305       9.78009369      11.44174760      -0.00045752       0.00009685       0.00006016
Te       9.15810456       6.98809165      11.94016319      -0.00033129       0.00001216       0.00071674
Te       9.80468861       7.15672316       8.98061730      -0.00012458       0.00026643       0.00060056
Te      10.34721785       8.70219722       6.31204886       0.00024246      -0.00028942       0.00046408
Te       9.75155761      11.53905298      12.87005949      -0.00042459      -0.00048185      -0.00011198
Te      11.46661553       7.82129131      13.03312570       0.00023578       0.00008822      -0.00012376
Te      11.42518837      12.16918268       9.14368634       0.00023611       0.00006083      -0.00007312
Te      12.71355971      10.35110851       7.13355257       0.00027001       0.00029795      -0.00048282
Te      12.50071118       6.32988516       9.23644599      -0.00000051       0.00020933      -0.00000563
Te      11.96273614      10.25087285      11.37047092      -0.00052215      -0.00051413      -0.00060123