3
Lattice="13.78276795825921 0.0 0.0 0.0 13.78276795825921 0.0 0.0 0.0 13.78276795825921" Properties=species:S:1:pos:R:3:forces:R:3 config_type=qcd dft_energy=-13.57459561 gap_energy=-14.147458686273147 relaxed_gap_energy=-14.247161751045915 energy=-14.247161751045915 free_energy=-14.247161751045915 pbc="T T T"
Ti       7.71693238       7.32789776       7.77655086      -0.00051166       0.00001102      -0.00067027
Ti       6.45095695       7.68209604       5.97683543       0.00043568      -0.00026348       0.00068054
Ti       6.50626261       5.66415812       6.92076565       0.00007598       0.00025246      -0.00001027
4
Lattice="15.401538 0.0 0.0 0.0 15.401538 0.0 0.0 0.0 15.401538" Properties=species:S:1:pos:R:3:forces:R:3 config_type=qcd dft_energy=-19.97409377 gap_energy=-20.204117474486445 relaxed_gap_energy=-20.238924355951205 energy=-20.238924355951205 free_energy=-20.238924355951205 pbc="T T T"
Ti       6.30237655       7.27061481       7.93347851      -0.00062209       0.00009119       0.00039258
Ti       7.95326763       8.97123259       8.41975670      -0.00019499       0.00035032       0.00051179
Ti       8.62745377       6.65827814       8.20014925       0.00038574      -0.00022505      -0.00014166
Ti       7.91997805       7.90295048       6.24969154       0.00043133      -0.00021646      -0.00076271
5
Lattice="18.87413645452923 0.0 0.0 0.0 18.87413645452923 0.0 0.0 0.0 18.87413645452923" Properties=species:S:1:pos:R:3:forces:R:3 config_type=qcd dft_energy=-26.58394819 gap_energy=-26.5159300511573 relaxed_gap_energy=-26.536522758764438 energy=-26.536522758764438 free_energy=-26.536522758764438 pbc="T T T"
Ti       9.33003543       7.52419840       8.85557584       0.00022578       0.00086004       0.00006358
Ti       8.53562579       9.82206556       8.33652802       0.00000491       0.00002824      -0.00003823
Ti       8.88042492       9.06869322      10.75091550      -0.00015275      -0.00001573       0.00039269
Ti      10.89520231       9.42052315       9.22362771       0.00004501      -0.00030163      -0.00013532
Ti       9.54405269      11.34986080      10.01869408      -0.00012295      -0.00057091      -0.00028272
6
Lattice="17.95246787803254 0.0 0.0 0.0 17.95246787803254 0.0 0.0 0.0 17.95246787803254" Properties=species:S:1:pos:R:3:forces:R:3 config_type=qcd dft_energy=-32.78040887 gap_energy=-32.6160825212999 relaxed_gap_energy=-32.8265501185907 energy=-32.8265501185907 free_energy=-32.8265501185907 pbc="T T T"
Ti       7.28254680       9.34611005       9.53658421      -0.00030859      -0.00013689       0.00004572
Ti       8.36759771       7.48908978       8.11758984      -0.00045672      -0.00016617      -0.00014087
Ti       9.58494288      10.46337588       9.83480275       0.00020694       0.00019195       0.00042766
Ti       9.25926536       7.99074038      10.48218873       0.00005197      -0.00016158       0.00058649
Ti      10.66983438       8.60637314       8.41590630       0.00079198      -0.00004031      -0.00011799
Ti       8.69321649       9.96171439       7.47033181      -0.00028559       0.00031300      -0.00080101
6
Lattice="16.085785 0.0 0.0 0.0 16.085785 0.0 0.0 0.0 16.085785" Properties=species:S:1:pos:R:3:forces:R:3 config_type=qcd dft_energy=-32.77117434 gap_energy=-32.513879508526756 relaxed_gap_energy=-32.82655020034666 energy=-32.82655020034666 free_energy=-32.82655020034666 pbc="T T T"
Ti       8.00340270       9.86433329       8.04722617       0.00004141       0.00013277      -0.00006850
Ti       8.08234959       6.22144773       8.03866786      -0.00002087      -0.00011528      -0.00000795
Ti       6.22179463       8.00356421       8.00325810       0.00041475      -0.00005386       0.00023988
Ti       9.86397896       8.08225421       8.08236989      -0.00034200      -0.00000361       0.00010218
Ti       8.00351283       8.03777112       9.86434490      -0.00011143      -0.00001323       0.00008633
Ti       8.08231629       8.04798444       6.22148808       0.00001813       0.00005320      -0.00035194
6
Lattice="15.13239339814001 0.0 0.0 0.0 15.13239339814001 0.0 0.0 0.0 15.13239339814001" Properties=species:S:1:pos:R:3:forces:R:3 config_type=qcd dft_energy=-32.75051185 gap_energy=-32.749877483109955 relaxed_gap_energy=-32.88414835452447 energy=-32.88414835452447 free_energy=-32.88414835452447 pbc="T T T"
Ti       9.34832186       7.79280122       7.01026426       0.00050707      -0.00029122       0.00051062
Ti       8.26325891       6.90301090       9.18208131      -0.00082842       0.00023784      -0.00047464
Ti       7.67188014       8.45283478       5.40371887      -0.00045302       0.00025090      -0.00059149
Ti       7.12913182       6.45292828       6.89178647       0.00016777       0.00070647       0.00046891
Ti       7.13099448       8.83301787       7.86776289       0.00012695      -0.00075589      -0.00013420
Ti       5.85359298       6.96258714       9.04156639       0.00047965      -0.00014810       0.00022080
6
Lattice="18.45259095061812 0.0 0.0 0.0 18.45259095061812 0.0 0.0 0.0 18.45259095061812" Properties=species:S:1:pos:R:3:forces:R:3 config_type=qcd dft_energy=-32.7450949 gap_energy=-32.43633179827212 relaxed_gap_energy=-32.88414841713363 energy=-32.88414841713363 free_energy=-32.88414841713363 pbc="T T T"
Ti       8.23778237      10.79940688       7.80397870       0.00036241      -0.00044155       0.00046247
Ti      10.20998250       9.24901178       8.26876659      -0.00014581      -0.00020100      -0.00003865
Ti       7.92641039       8.80749710       9.36747768       0.00003887       0.00015939      -0.00024503
Ti      10.09179486       8.63230594      10.78677904      -0.00008151       0.00022146      -0.00061694
Ti       9.25971695      10.94591666       9.98644593      -0.00023144       0.00070040       0.00039036
Ti       9.63208579       6.92363449       9.14432491       0.00005747      -0.00043870       0.00004778
7
Lattice="15.31650412407584 0.0 0.0 0.0 15.31650412407584 0.0 0.0 0.0 15.31650412407584" Properties=species:S:1:pos:R:3:forces:R:3 config_type=qcd dft_energy=-40.07838749 gap_energy=-39.51907923501007 relaxed_gap_energy=-39.74502054030178 energy=-39.74502054030178 free_energy=-39.74502054030178 pbc="T T T"
Ti       8.60824465       7.20644503       8.44203299       0.00027652      -0.00015106       0.00047538
Ti       8.79784888       6.97031895       5.88061173      -0.00022629       0.00002077       0.00003976
Ti       8.98343680       9.31753974       7.00830560       0.00005612      -0.00011232       0.00008073
Ti       7.33785885       9.37176550       9.03426775      -0.00008526      -0.00069246      -0.00024716
Ti       7.03719218       5.57379602       7.20931799       0.00011412       0.00044159       0.00060233
Ti       6.70823138       8.10995038       6.87450108      -0.00059679       0.00046402      -0.00031992
Ti       6.13495170       7.05794882       9.15872729       0.00046158       0.00002946      -0.00063111
8
Lattice="15.10497220977391 0.0 0.0 0.0 15.10497220977391 0.0 0.0 0.0 15.10497220977391" Properties=species:S:1:pos:R:3:forces:R:3 config_type=qcd dft_energy=-46.01089409 gap_energy=-45.60183436308914 relaxed_gap_energy=-45.958442528915484 energy=-45.958442528915484 free_energy=-45.958442528915484 pbc="T T T"
Ti       8.61384390       6.51141690       7.91668959       0.00008956      -0.00007800       0.00004186
Ti       6.65564578       5.33517258       6.88978331       0.00022117      -0.00030472      -0.00018304
Ti       8.41765676       8.51391429       9.52791459       0.00035692       0.00001539       0.00049794
Ti       6.29367331       7.05686698       8.94464890      -0.00039749      -0.00002681      -0.00005188
Ti       6.64275590       9.59609673       8.30798752      -0.00010664       0.00058602       0.00037300
Ti       6.50289939       7.79874355       6.46595218      -0.00016611      -0.00004929      -0.00024517
Ti       8.49468810       6.69643271       5.42189827       0.00000665      -0.00035520      -0.00013990
Ti       8.79872568       8.91124509       6.94501449      -0.00000405       0.00021261      -0.00029282
8
Lattice="18.57360113067828 0.0 0.0 0.0 18.57360113067828 0.0 0.0 0.0 18.57360113067828" Properties=species:S:1:pos:R:3:forces:R:3 config_type=qcd dft_energy=-45.96258997 gap_energy=-45.770992404626824 relaxed_gap_energy=-45.958442402616456 energy=-45.958442402616456 free_energy=-45.958442402616456 pbc="T T T"
Ti      11.45990057       9.70173047       8.46178148      -0.00014202       0.00003394      -0.00017812
Ti      10.25789426      10.04163128      10.78870463      -0.00005975      -0.00054723      -0.00009722
Ti       7.46642963       7.67368930       8.79223383       0.00054239       0.00010702       0.00033785
Ti       7.96355049       9.99988357       9.57566557       0.00033637      -0.00013343      -0.00032373
Ti       8.31754367       8.23097384      11.31314588      -0.00029135       0.00049901      -0.00021303
Ti       9.84135712      11.48117288       8.61404494      -0.00025214       0.00017982       0.00027385
Ti       9.88861074       7.88357826       9.39417702      -0.00011056       0.00000535      -0.00023376
Ti       9.09911802       9.28174495       7.35465117      -0.00002294      -0.00014448       0.00043415
9
Lattice="17.85315927333492 0.0 0.0 0.0 17.85315927333492 0.0 0.0 0.0 17.85315927333492" Properties=species:S:1:pos:R:3:forces:R:3 config_type=qcd dft_energy=-52.60736369 gap_energy=-52.559021946988345 relaxed_gap_energy=-52.65393030616432 energy=-52.65393030616432 free_energy=-52.65393030616432 pbc="T T T"
Ti      10.21125864       7.31495640       9.65366141      -0.00049040      -0.00027248      -0.00013419
Ti      11.40767357       9.64878560       9.62132359       0.00001288       0.00045469       0.00081797
Ti       9.14439684       9.53365321      10.64710569       0.00052446       0.00027820      -0.00065398
Ti       9.63466480      11.49295268       9.19586412      -0.00010567       0.00032373      -0.00031278
Ti       9.38673658       9.14882235       7.97359721      -0.00041241      -0.00013836       0.00066656
Ti       7.27992234      10.36350210       8.94892627       0.00070501       0.00001627       0.00054011
Ti       7.60325016       7.78575057       9.49534575       0.00010778       0.00013991      -0.00078519
Ti       8.72200988       6.60329248       7.61495528       0.00007084      -0.00039470      -0.00034016
Ti       6.94930392       8.44750135       7.18843739      -0.00041250      -0.00040726       0.00020166
10
Lattice="16.914342 0.0 0.0 0.0 16.914342 0.0 0.0 0.0 16.914342" Properties=species:S:1:pos:R:3:forces:R:3 config_type=qcd dft_energy=-59.03156805 gap_energy=-59.32443939993445 relaxed_gap_energy=-59.44093715332687 energy=-59.44093715332687 free_energy=-59.44093715332687 pbc="T T T"
Ti       8.42781538      11.18481409       7.94379881       0.00011038       0.00034558      -0.00015156
Ti       9.89174154       7.88503100      10.76361391      -0.00036577       0.00029258      -0.00010095
Ti       5.88045011       7.43489805       8.59814656      -0.00025390      -0.00029070      -0.00019666
Ti      10.45367199       9.84495443       9.04475636       0.00032708      -0.00064675      -0.00051346
Ti       8.04817740       6.30379317       9.66253221       0.00059692      -0.00011419      -0.00052806
Ti       6.66655590       9.41918445       6.99934135      -0.00020787       0.00023872       0.00052167
Ti      10.11658522       7.32257054       8.41493324      -0.00018477       0.00016909       0.00055183
Ti       7.80198271       7.06246760       7.16545878       0.00058135       0.00041756      -0.00000654
Ti       9.27217935       9.22670030       6.78786427      -0.00017429      -0.00068130       0.00012442
Ti       8.01255041       8.88729639       9.19126451      -0.00042913       0.00026940       0.00029929
10
Lattice="19.59573572120431 0.0 0.0 0.0 19.59573572120431 0.0 0.0 0.0 19.59573572120431" Properties=species:S:1:pos:R:3:forces:R:3 config_type=qcd dft_energy=-58.99518702 gap_energy=-58.726337826141304 relaxed_gap_energy=-58.90120504786361 energy=-58.90120504786361 free_energy=-58.90120504786361 pbc="T T T"
Ti       8.76780108      10.92664974       7.96115292      -0.00006606       0.00045215      -0.00062925
Ti      10.08341787       8.57680629       7.76394998      -0.00011255       0.00011999      -0.00021214
Ti       8.12283721       9.04534425       9.51336233       0.00017412      -0.00036522       0.00061982
Ti      12.44042205       8.46240095       9.38686950      -0.00067206       0.00020600       0.00048666
Ti      11.24125437      10.52174431       8.87848401      -0.00000999      -0.00006973       0.00011142
Ti      10.25220342       8.08276583      10.34840083       0.00071751       0.00010913      -0.00000033
Ti       9.56481080      11.54051148      10.39839602       0.00012917      -0.00046279      -0.00011183
Ti      11.49175352       9.99388115      11.43728366       0.00005168      -0.00000862      -0.00035280
Ti       7.17962347      11.13623811      10.33518152       0.00043368       0.00016506       0.00021492
Ti       8.83455483       9.69233649      11.95559784      -0.00064550      -0.00014597      -0.00012647
11
Lattice="14.56244345763905 0.0 0.0 0.0 14.56244345763905 0.0 0.0 0.0 14.56244345763905" Properties=species:S:1:pos:R:3:forces:R:3 config_type=qcd dft_energy=-65.78254406 gap_energy=-66.01382272968743 relaxed_gap_energy=-66.10429883477565 energy=-66.10429883477565 free_energy=-66.10429883477565 pbc="T T T"
Ti       9.09949218       9.15979947       7.34938620      -0.00002024      -0.00027137      -0.00025201
Ti       9.15922988       7.02894266       5.47886194       0.00055293       0.00043559      -0.00043952
Ti       7.16605928       8.66966578       5.69604954       0.00007860      -0.00000743      -0.00033855
Ti       6.60069757       9.34039761       8.16694400       0.00050099      -0.00017995       0.00058004
Ti       8.20680181       8.52141904       9.79168387      -0.00041398       0.00024791      -0.00010800
Ti       7.78639801       6.92573271       7.70235304      -0.00008617      -0.00003025      -0.00032416
Ti       5.90840109       7.17804922       9.50480844      -0.00016272      -0.00020351      -0.00007405
Ti       5.19222745       7.44386417       7.02922991      -0.00018804      -0.00021738      -0.00004908
Ti       8.31473412       4.66232401       6.40361185       0.00060694      -0.00043460       0.00018998
Ti       6.69123688       6.11604645       5.33635920      -0.00032275       0.00054414       0.00056263
Ti       5.96816078       5.04719789       7.63415104      -0.00054555       0.00011686       0.00025272
12
Lattice="19.49844710452246 0.0 0.0 0.0 19.49844710452246 0.0 0.0 0.0 19.49844710452246" Properties=species:S:1:pos:R:3:forces:R:3 config_type=qcd dft_energy=-72.8497401 gap_energy=-72.95827187324352 relaxed_gap_energy=-73.11354008798742 energy=-73.11354008798742 free_energy=-73.11354008798742 pbc="T T T"
Ti      11.11061024       9.27634072      12.11449392      -0.00014655      -0.00007719       0.00033750
Ti      10.10965372      10.09242752       9.88234773      -0.00036241      -0.00052447      -0.00020626
Ti       9.15874583      11.41709750      11.88024148       0.00009173       0.00015529       0.00007484
Ti      10.39833916       7.47294698      10.36672059       0.00005884      -0.00006891      -0.00001817
Ti      11.22622605      10.87050345       7.69185624       0.00010589       0.00010790      -0.00015930
Ti      10.46415375       8.37897028       7.85300502      -0.00043195       0.00051983       0.00014849
Ti       8.66924036      10.34791885       7.63742856       0.00025398      -0.00053361       0.00048396
Ti       8.17808637       8.25337405       9.16894898       0.00013320       0.00021811      -0.00018482
Ti       8.56285197       8.88167186      11.70479139       0.00009127       0.00033434      -0.00034221
Ti       7.49417777      10.65853383      10.01797689       0.00017059      -0.00025710       0.00003790
Ti       9.23032804      12.40245461       9.14685783      -0.00003730       0.00009619      -0.00006983
Ti      12.38826936       8.93844299       9.52601399       0.00007274       0.00002961      -0.00010210
13
Lattice="15.2060804060364 0.0 0.0 0.0 15.2060804060364 0.0 0.0 0.0 15.2060804060364" Properties=species:S:1:pos:R:3:forces:R:3 config_type=qcd dft_energy=-80.44920695 gap_energy=-80.49138375491074 relaxed_gap_energy=-80.6366500825383 energy=-80.6366500825383 free_energy=-80.6366500825383 pbc="T T T"
Ti       8.72291048       6.51646968       5.54720890      -0.00027246       0.00016695       0.00040152
Ti       6.37673242       7.86540711       5.34735737      -0.00032439      -0.00025807       0.00005197
Ti       6.46817288       5.48838214       6.65344701       0.00037604       0.00037822       0.00039875
Ti       8.67194981       9.20825307       5.88790944      -0.00002798      -0.00025411       0.00024552
Ti       8.82021218       5.36223241       8.00138156      -0.00014992       0.00046559      -0.00029702
Ti      10.18220801       7.66132550       7.52807706      -0.00038396      -0.00013812       0.00015389
Ti       7.60299078       7.60287341       7.60316619       0.00014328       0.00054045      -0.00054283
Ti       5.02383449       7.54483265       7.67786032       0.00050465      -0.00011555       0.00028631
Ti       6.38586730       9.84378449       7.20478123       0.00024950      -0.00032855      -0.00004396
Ti       6.53405612       5.99779045       9.31824936       0.00018687       0.00033669      -0.00041302
Ti       8.73783288       9.71771042       8.55249140      -0.00008268      -0.00032391       0.00000328
Ti       8.82953912       7.34083267       9.85869107      -0.00024093      -0.00029109       0.00015718
Ti       6.48321615       8.68962867       9.65890172       0.00002199      -0.00017850      -0.00040158
14
Lattice="19.80516772343825 0.0 0.0 0.0 19.80516772343825 0.0 0.0 0.0 19.80516772343825" Properties=species:S:1:pos:R:3:forces:R:3 config_type=qcd dft_energy=-87.16097496 gap_energy=-86.85760111220581 relaxed_gap_energy=-87.26763125127128 energy=-87.26763125127128 free_energy=-87.26763125127128 pbc="T T T"
Ti      11.81910764       8.37667567       8.87378111       0.00016189       0.00013312      -0.00008269
Ti      10.92087157       8.45226472      11.64549563       0.00005836      -0.00014742       0.00014082
Ti       9.63312408       9.01186175       7.41383824      -0.00008857      -0.00006439      -0.00014134
Ti      12.44167698      10.51109819      10.35892570       0.00007752       0.00032153      -0.00010589
Ti      10.54253169      11.31201266      12.06215975       0.00004142       0.00000523       0.00007538
Ti       9.91000317       9.91297609       9.89596526       0.00001246       0.00060258      -0.00009424
Ti       8.35646964      11.94710726      10.60226828       0.00029796      -0.00008675      -0.00011327
Ti      10.77533584      12.48919666       9.72107615      -0.00025265       0.00005216       0.00010581
Ti       9.50392790       7.28302912       9.36000960      -0.00024640      -0.00050089       0.00000710
Ti      11.51323296      10.79242966       7.87795139       0.00010815      -0.00011602      -0.00010867
Ti       8.95630083      11.52384330       8.03123582       0.00023206      -0.00002646       0.00002542
Ti       8.35589737       7.73731407      11.27666171      -0.00017908      -0.00008849       0.00009249
Ti       8.38935110       9.84567799      12.14364256      -0.00016226      -0.00017235       0.00021596
Ti       7.51834333       9.44068697       9.37316288      -0.00006085       0.00008815      -0.00001689
15
Lattice="15.31553539884189 0.0 0.0 0.0 15.31553539884189 0.0 0.0 0.0 15.31553539884189" Properties=species:S:1:pos:R:3:forces:R:3 config_type=qcd dft_energy=-94.55847335 gap_energy=-94.67481973274097 relaxed_gap_energy=-94.73150378597333 energy=-94.73150378597333 free_energy=-94.73150378597333 pbc="T T T"
Ti      10.03376497       8.68517420       8.61547609      -0.00026385       0.00028169       0.00028793
Ti       7.92837916       9.59199453       9.60938031      -0.00003343       0.00052720       0.00018115
Ti       8.24667573       9.97014011       6.79730786       0.00003525       0.00020588       0.00002736
Ti      10.03771443       7.80934204       6.26974983       0.00046344      -0.00014562      -0.00074791
Ti       9.82212336       6.05522476       8.25991380      -0.00048812      -0.00031006       0.00018864
Ti       8.60251430       7.08151362      10.18691564      -0.00017761       0.00035283       0.00041340
Ti       5.82221099       9.62737966       8.26472658      -0.00009227       0.00003617      -0.00012134
Ti       7.65697844       7.65063008       7.63671176       0.00028305      -0.00019784      -0.00017184
Ti       5.81703158       8.75344672       5.91739114       0.00026013      -0.00081951       0.00050053
Ti       7.92779309       7.84228995       4.91378877      -0.00031740       0.00022680      -0.00042174
Ti       6.17287567       7.62546803       9.98465884       0.00005251      -0.00042473       0.00028648
Ti       8.60826739       5.56887750       6.12073644      -0.00026453      -0.00005648      -0.00013815
Ti       4.95355487       7.14452516       7.85412191       0.00059284       0.00025972      -0.00026260
Ti       7.06874457       5.34587711       8.51863481      -0.00010593      -0.00042548      -0.00007054
Ti       6.16788694       6.11463204       5.91700170       0.00005592       0.00048942       0.00004862
16
Lattice="19.84297637324779 0.0 0.0 0.0 19.84297637324779 0.0 0.0 0.0 19.84297637324779" Properties=species:S:1:pos:R:3:forces:R:3 config_type=qcd dft_energy=-101.41362152 gap_energy=-101.6799431568886 relaxed_gap_energy=-101.76597207965594 energy=-101.76597207965594 free_energy=-101.76597207965594 pbc="T T T"
Ti      11.07367099      12.54813169       9.68656416      -0.00009709       0.00014957       0.00010074
Ti      11.86584960      11.01244954      11.58745298      -0.00034570      -0.00044170      -0.00023667
Ti      12.26482165      10.29550694       8.79765394       0.00074083      -0.00008143       0.00023756
Ti      10.08146211      11.45514448       7.60461544       0.00008697       0.00020122      -0.00023089
Ti       9.56561110      12.10397444      11.76324664      -0.00008383      -0.00010561      -0.00000258
Ti      12.06479692       8.73864102      11.24560059      -0.00043211       0.00048951      -0.00000452
Ti       8.49075862      12.36453730       9.40512292      -0.00007683      -0.00019861      -0.00033939
Ti      10.28047302       9.18123401       7.26277676      -0.00003454      -0.00006940      -0.00028027
Ti      11.49673404       7.71338731       8.95979153      -0.00015982      -0.00011522      -0.00009652
Ti       9.92146104       9.92150615       9.92133294       0.00000866      -0.00007632       0.00076901
Ti       7.51864718      10.70757542      11.08514539       0.00009654       0.00006613       0.00018053
Ti       9.98855997       7.26922981      11.03641257       0.00010538       0.00008903      -0.00000308
Ti       9.75648951       9.51779231      12.51070518       0.00038344       0.00010411      -0.00032658
Ti       7.74303763       9.95121503       8.45584837      -0.00001037       0.00000479       0.00030350
Ti       8.91382270       7.52964637       8.67821991      -0.00008633       0.00009392      -0.00023097
Ti       7.71761490       8.43383915      10.74332167      -0.00009522      -0.00011001       0.00016012
17
Lattice="20.06124731573609 0.0 0.0 0.0 20.06124731573609 0.0 0.0 0.0 20.06124731573609" Properties=species:S:1:pos:R:3:forces:R:3 config_type=qcd dft_energy=-108.46935497 gap_energy=-108.70348271844445 relaxed_gap_energy=-108.9210229230375 energy=-108.9210229230375 free_energy=-108.9210229230375 pbc="T T T"
Ti      12.65856303      10.77016004      10.10216570       0.00062992       0.00018712      -0.00005570
Ti      11.88503531       9.24620489       7.97660299      -0.00000310       0.00006568       0.00004419
Ti      12.14749851       8.09470102      10.24079491       0.00005230      -0.00001443       0.00009814
Ti      11.75877209       9.28585039      12.20592641       0.00007956      -0.00011360      -0.00013801
Ti      10.19556681       7.47881718       8.71371258      -0.00009337       0.00009518      -0.00000800
Ti       9.24976613       9.69465048       7.43528915       0.00003737       0.00003006      -0.00003391
Ti      11.07043937      11.74249290      12.09493525      -0.00003796      -0.00002985      -0.00003205
Ti      11.25684591      11.48814658       7.87540971      -0.00000437      -0.00005466      -0.00010250
Ti      10.83098104      12.79329319      10.02860642      -0.00025575       0.00012612       0.00021407
Ti       8.02556599       8.10788712       9.28517143      -0.00004173      -0.00011509       0.00000033
Ti       9.70816824       7.68371915      11.38937751      -0.00019698      -0.00046428       0.00024745
Ti       8.87896816      12.17745579       8.50157821       0.00011453      -0.00018855       0.00003655
Ti       9.38090398       9.97508051      12.83204496       0.00009460       0.00011292      -0.00010860
Ti       8.50598942      11.97398154      11.19567192       0.00016631      -0.00015906      -0.00005323
Ti      10.03070637      10.03056831      10.03063874      -0.00065093       0.00046085      -0.00011966
Ti       7.59965746       9.41302645      11.43840729      -0.00007698       0.00010049       0.00011414
Ti       7.33717437      10.56456663       9.17426902       0.00018659      -0.00003891      -0.00010320
18
Lattice="20.54620119966948 0.0 0.0 0.0 20.54620119966948 0.0 0.0 0.0 20.54620119966948" Properties=species:S:1:pos:R:3:forces:R:3 config_type=qcd dft_energy=-114.63364785 gap_energy=-114.3921062204125 relaxed_gap_energy=-115.11123520554992 energy=-115.11123520554992 free_energy=-115.11123520554992 pbc="T T T"
Ti      13.08455243      10.12105316      11.31387071       0.00007915       0.00010867      -0.00008833
Ti      12.99392722      11.27699977       9.46481972       0.00009118      -0.00006670       0.00020413
Ti      11.47704794      10.66157783       7.58525675      -0.00010180      -0.00005961       0.00024377
Ti      12.16925011       8.60723602       9.18045570      -0.00009952       0.00003924       0.00017898
Ti       9.92256666       8.90708771       7.76606689       0.00002711       0.00022323      -0.00011693
Ti      11.09104516      12.79903042       8.94061403      -0.00011742      -0.00015042       0.00027320
Ti      11.48973272      12.37249144      11.56796161      -0.00035655      -0.00046276      -0.00021158
Ti      11.29910030      10.25065991      13.06669097       0.00011489       0.00027972       0.00033101
Ti      11.69255055       8.07087820      11.68436052       0.00031020      -0.00035645      -0.00004801
Ti      10.28008693      10.26673953      10.28498804      -0.00033561       0.00041075       0.00011880
Ti       9.69776306       7.59055442      10.08003372       0.00004987       0.00011252      -0.00014959
Ti       9.44284384       8.62316116      12.63957308      -0.00010392       0.00028986      -0.00080968
Ti       7.87875029       9.18138403       8.89488688       0.00001249      -0.00008462       0.00005603
Ti       9.19451544      12.93904040      10.32307143       0.00023001      -0.00022094      -0.00025002
Ti       8.96479900      11.46343860       8.02341467      -0.00005025      -0.00020989       0.00031355
Ti       9.01756380      11.35528526      12.46780821       0.00018037       0.00012823      -0.00059905
Ti       7.72697602       9.11039896      11.38175776      -0.00001282      -0.00012069       0.00037852
Ti       7.49273935      11.31879399      10.25018012       0.00008262       0.00013984       0.00017519
18
Lattice="20.14599840249906 0.0 0.0 0.0 20.14599840249906 0.0 0.0 0.0 20.14599840249906" Properties=species:S:1:pos:R:3:forces:R:3 config_type=qcd dft_energy=-114.62093435 gap_energy=-114.95848365982715 relaxed_gap_energy=-115.11123512286538 energy=-115.11123512286538 free_energy=-115.11123512286538 pbc="T T T"
Ti      11.17077305       9.72727694      12.57092698      -0.00047418      -0.00003727      -0.00029338
Ti       8.58042398       9.11513326      12.33740564       0.00006075      -0.00010790       0.00005585
Ti       9.06815379      11.40695196      12.52973531       0.00009585      -0.00039817       0.00011191
Ti      11.18814792      12.38085375      11.65245254       0.00010373      -0.00024757      -0.00001099
Ti      10.29431727       7.51435614      11.05711216      -0.00004179       0.00032608       0.00022362
Ti       7.35295987      10.81190118      10.56755382      -0.00053524       0.00013793       0.00018098
Ti       9.07584901      12.85025905      10.41530118       0.00042038      -0.00005911      -0.00044016
Ti      12.77808835      11.14305886      10.81378248      -0.00052106       0.00014752       0.00005657
Ti      12.61110499       8.64628733      10.68921353       0.00046305       0.00000038      -0.00010720
Ti      10.08734440      10.06913082      10.07038872       0.00042666       0.00008556      -0.00041026
Ti      10.30800187      10.05728594       7.33277023      -0.00037918       0.00018390       0.00045652
Ti       7.80033527       9.62947511       8.21208203       0.00045298       0.00015337      -0.00026162
Ti      11.48727699       7.88352144       8.58390751      -0.00073993       0.00020674       0.00016786
Ti       8.59458271      11.83795767       8.34868298       0.00050139       0.00006653      -0.00028620
Ti      11.18396167      12.26947819       8.84588985      -0.00057716      -0.00042260       0.00040382
Ti      12.61891739      10.11844845       8.53278128       0.00028624       0.00005955      -0.00030017
Ti       7.79259309       8.18614558      10.32648384       0.00026474      -0.00011805       0.00033239