3
Lattice="17.63011278792038 0.0 0.0 0.0 17.63011278792038 0.0 0.0 0.0 17.63011278792038" Properties=species:S:1:pos:R:3:forces:R:3 config_type=qcd dft_energy=-3.34944057 gap_energy=-3.2959686001402333 relaxed_gap_energy=-3.4450637453915083 energy=-3.4450637453915083 free_energy=-3.4450637453915083 pbc="T T T"
Tl       8.87259708      10.34364581       9.85131412       0.00029570       0.00036516       0.00020388
Tl      10.37331941       8.12345890       8.10083874      -0.00056429       0.00000202       0.00008878
Tl       7.19925269       7.97806447       8.49301632       0.00026859      -0.00036718      -0.00029266
4
Lattice="18.20138109155679 0.0 0.0 0.0 18.20138109155679 0.0 0.0 0.0 18.20138109155679" Properties=species:S:1:pos:R:3:forces:R:3 config_type=qcd dft_energy=-5.37046098 gap_energy=-5.207563083894743 relaxed_gap_energy=-5.209041568239544 energy=-5.209041568239544 free_energy=-5.209041568239544 pbc="T T T"
Tl      12.83820764      11.24155197      10.45575221       0.00028926       0.00035253       0.00046532
Tl      10.38181244      12.76847938      11.41019466       0.00030872       0.00023302      -0.00042136
Tl       8.68502385      10.26593897      11.04581232      -0.00011158      -0.00055990       0.00028526
Tl      11.14000053       8.74098614      10.08456916      -0.00048640      -0.00002566      -0.00032922
5
Lattice="18.55922184051447 0.0 0.0 0.0 18.55922184051447 0.0 0.0 0.0 18.55922184051447" Properties=species:S:1:pos:R:3:forces:R:3 config_type=qcd dft_energy=-7.13243912 gap_energy=-7.093459116810893 relaxed_gap_energy=-7.505416390686827 energy=-7.505416390686827 free_energy=-7.505416390686827 pbc="T T T"
Tl       6.90823092       8.19699015       5.41169828       0.00005031       0.00050866      -0.00065693
Tl       8.15905276       5.57547124       7.13963562      -0.00029438      -0.00038938       0.00020143
Tl       5.26876663       7.17706135       7.85838349       0.00087998      -0.00008458      -0.00004819
Tl       9.35164611       8.73570238       7.27092838      -0.00089708      -0.00021866       0.00022283
Tl       7.71170607       7.71531934       9.71772570       0.00026117       0.00018397       0.00028086
5
Lattice="16.65068149542002 0.0 0.0 0.0 16.65068149542002 0.0 0.0 0.0 16.65068149542002" Properties=species:S:1:pos:R:3:forces:R:3 config_type=qcd dft_energy=-7.12998755 gap_energy=-7.013567276482396 relaxed_gap_energy=-7.50541741066896 energy=-7.50541741066896 free_energy=-7.50541741066896 pbc="T T T"
Tl       8.87724796       9.52294622       6.48658049      -0.00015326       0.00002232      -0.00031929
Tl       6.24799122       8.15075558       7.44552085      -0.00013369       0.00002227      -0.00051845
Tl       9.14735509       6.48553814       7.94503645       0.00004092      -0.00007946      -0.00008649
Tl       9.99122176       9.42029525       9.39558568       0.00072011       0.00031111       0.00009615
Tl       7.36288771       8.04716857      10.35398027      -0.00047406      -0.00027623       0.00082809
5
Lattice="18.99704926214129 0.0 0.0 0.0 18.99704926214129 0.0 0.0 0.0 18.99704926214129" Properties=species:S:1:pos:R:3:forces:R:3 config_type=qcd dft_energy=-7.08671824 gap_energy=-6.7974850958974695 relaxed_gap_energy=-7.505417632733808 energy=-7.505417632733808 free_energy=-7.505417632733808 pbc="T T T"
Tl      10.06339956      10.73289238       7.68821269       0.00017845       0.00016752       0.00005425
Tl       7.43984460       9.30546316       8.57946324      -0.00025819      -0.00000742      -0.00033396
Tl      10.35557482       7.67765274       9.10479850      -0.00000395      -0.00001939       0.00016940
Tl      11.12886243      10.60171911      10.61461736       0.00000013       0.00000660      -0.00025538
Tl       8.50494175       9.17489576      11.50553137       0.00008356      -0.00014731       0.00036569
6
Lattice="17.23878422587775 0.0 0.0 0.0 17.23878422587775 0.0 0.0 0.0 17.23878422587775" Properties=species:S:1:pos:R:3:forces:R:3 config_type=qcd dft_energy=-9.45626025 gap_energy=-9.078581418702614 relaxed_gap_energy=-9.68752336891181 energy=-9.68752336891181 free_energy=-9.68752336891181 pbc="T T T"
Tl      11.94467726       9.29762675      11.39044499      -0.00007326      -0.00020256      -0.00014134
Tl      11.35678013      12.16066614       9.84081162      -0.00017678       0.00041596       0.00005071
Tl       8.97854284       8.17874708      10.44836924       0.00012370       0.00086042       0.00029394
Tl      11.11095518       9.30958871       8.18995098       0.00016291      -0.00053218      -0.00062233
Tl       9.22402389      11.03402645      12.10165406      -0.00050129      -0.00032981      -0.00000266
Tl       8.38658719      11.04290514       8.90409880       0.00046472      -0.00021183       0.00042168
6
Lattice="16.43605439100469 0.0 0.0 0.0 16.43605439100469 0.0 0.0 0.0 16.43605439100469" Properties=species:S:1:pos:R:3:forces:R:3 config_type=qcd dft_energy=-9.45523698 gap_energy=-9.395473144750168 relaxed_gap_energy=-9.687525895856238 energy=-9.687525895856238 free_energy=-9.687525895856238 pbc="T T T"
Tl       8.89058719       7.90531002       8.48554346      -0.00003283       0.00020668       0.00013352
Tl       8.14494830       9.26380159      11.40735820       0.00021391       0.00015031      -0.00041196
Tl       8.20753029      11.13424839       8.68083022       0.00005785      -0.00018397       0.00017689
Tl      11.29842673      10.13293548       8.06461851      -0.00009053      -0.00002882      -0.00026510
Tl      11.23479282       8.26183684      10.78978937       0.00004364      -0.00014941       0.00020181
Tl      10.55206945      11.49156028      10.98493456      -0.00019203       0.00000521       0.00016485
7
Lattice="17.43416708452739 0.0 0.0 0.0 17.43416708452739 0.0 0.0 0.0 17.43416708452739" Properties=species:S:1:pos:R:3:forces:R:3 config_type=qcd dft_energy=-11.60564648 gap_energy=-11.380059170955786 relaxed_gap_energy=-11.531213038590774 energy=-11.531213038590774 free_energy=-11.531213038590774 pbc="T T T"
Tl      12.46674861      10.91252153      10.30591171       0.00022000      -0.00011487      -0.00004254
Tl       9.89250516      12.83946433       9.96637074      -0.00012780       0.00015576       0.00012254
Tl      11.35708960       8.18335107      12.27006547      -0.00006211       0.00005108       0.00001212
Tl      10.70513222       8.55305702       9.21893410       0.00005064       0.00001517       0.00010115
Tl      10.21553212      11.12199167      12.79048642       0.00007497      -0.00000977       0.00000549
Tl       9.67485433      10.91674501       7.42394468      -0.00009359      -0.00005056      -0.00000982
Tl       8.22523164       9.97515602      10.51466154      -0.00006209      -0.00004679      -0.00018895
8
Lattice="17.67791191487673 0.0 0.0 0.0 17.67791191487673 0.0 0.0 0.0 17.67791191487673" Properties=species:S:1:pos:R:3:forces:R:3 config_type=qcd dft_energy=-13.92530432 gap_energy=-13.146715182342456 relaxed_gap_energy=-13.48466431038325 energy=-13.48466431038325 free_energy=-13.48466431038325 pbc="T T T"
Tl      11.02743828      10.60837374       8.64869729       0.00020917      -0.00035006       0.00002682
Tl      12.78212178       9.85472532      11.15996794      -0.00002938      -0.00027517      -0.00033926
Tl      11.80830937      13.40060544       9.93681033      -0.00009030      -0.00004195       0.00033757
Tl      11.26708667      12.09367718      12.90868606      -0.00026762       0.00033094      -0.00005190
Tl       7.82327122       9.29950799       8.93142725      -0.00020733      -0.00019573      -0.00002211
Tl       8.96073155      11.60411011      10.79219188       0.00026029       0.00010310       0.00024518
Tl      10.57736201       7.58890297       9.49695124       0.00009447       0.00017489      -0.00013489
Tl       9.71768148       8.93444497      12.29308625       0.00003070       0.00025398      -0.00006141
9
Lattice="17.77077805326924 0.0 0.0 0.0 17.77077805326924 0.0 0.0 0.0 17.77077805326924" Properties=species:S:1:pos:R:3:forces:R:3 config_type=qcd dft_energy=-15.4624832 gap_energy=-15.192087156311052 relaxed_gap_energy=-15.501798104422468 energy=-15.501798104422468 free_energy=-15.501798104422468 pbc="T T T"
Tl      10.17974027       8.83853745       7.41748588      -0.00021990      -0.00025316      -0.00008792
Tl      10.13464138       5.82063436       8.52859613       0.00036644      -0.00039097       0.00028343
Tl       9.54929328      11.77126261       8.40030217       0.00049974       0.00025189      -0.00006580
Tl      11.52459283       8.51218202      10.26391210       0.00011877       0.00003152      -0.00015874
Tl       6.21228474      10.87128509       8.85412218      -0.00048297      -0.00004230       0.00061138
Tl       8.63322175       9.72533087      10.63581669      -0.00059145      -0.00023695      -0.00041006
Tl       7.55558451      10.07287271       6.04676518       0.00034224      -0.00014327       0.00043114
Tl       7.40303808       7.75859497       8.48637030      -0.00003545       0.00032223      -0.00029333
Tl       8.77610439       6.59780114      11.33513061       0.00000258       0.00046101      -0.00031010
9
Lattice="17.68828700524548 0.0 0.0 0.0 17.68828700524548 0.0 0.0 0.0 17.68828700524548" Properties=species:S:1:pos:R:3:forces:R:3 config_type=qcd dft_energy=-15.42859287 gap_energy=-15.134172957450906 relaxed_gap_energy=-15.5068976386515 energy=-15.5068976386515 free_energy=-15.5068976386515 pbc="T T T"
Tl       6.40848814       9.94259087      10.88641548       0.00005823      -0.00010336       0.00018081
Tl       9.47211979      11.11309445      10.85400583      -0.00025055      -0.00016004       0.00008795
Tl       8.63888878       7.68186814      11.70642214       0.00018031       0.00032169       0.00005468
Tl      10.82822648       9.73861783       6.64313107       0.00009672      -0.00048411       0.00010910
Tl       8.08000147      10.47083646       8.06652118      -0.00020222      -0.00002125       0.00065679
Tl      10.69916074       8.56475187       9.53349575      -0.00035570      -0.00004139      -0.00043906
Tl       7.37208975       7.55211331       8.79174976       0.00028249       0.00057637      -0.00018456
Tl       9.99595799       6.30868420       7.49320293       0.00015548       0.00004272       0.00019610
Tl       8.10235836       8.22473442       5.62234738       0.00003524      -0.00013062      -0.00066181
10
Lattice="19.67108022731345 0.0 0.0 0.0 19.67108022731345 0.0 0.0 0.0 19.67108022731345" Properties=species:S:1:pos:R:3:forces:R:3 config_type=qcd dft_energy=-17.58610738 gap_energy=-16.936613908823762 relaxed_gap_energy=-17.28986007526785 energy=-17.28986007526785 free_energy=-17.28986007526785 pbc="T T T"
Tl      10.81746009      10.95325562      11.35088897       0.00001161       0.00040607       0.00006272
Tl       8.40353621      13.01709319      10.91218079      -0.00007184       0.00043140       0.00081223
Tl      13.35016135      10.03251275       9.72077896      -0.00032203      -0.00030105       0.00030014
Tl       9.58044300      10.89553837       8.49080915      -0.00041294      -0.00023797      -0.00046629
Tl       6.35166416      10.91701179       9.64951387      -0.00028777      -0.00008222       0.00009734
Tl       8.04899368       9.96268465      12.51857261       0.00009796       0.00017433      -0.00027032
Tl       8.29588180       8.37253292       9.79395708       0.00058652      -0.00013493       0.00004634
Tl      11.85358747       9.47685248       7.15948781       0.00059146      -0.00049064       0.00019941
Tl      11.30312504       7.76939202      10.88786275       0.00000854       0.00039807      -0.00052295
Tl      10.35054834       6.95852737       7.87134918      -0.00020152      -0.00016307      -0.00025860
10
Lattice="19.06869819152905 0.0 0.0 0.0 19.06869819152905 0.0 0.0 0.0 19.06869819152905" Properties=species:S:1:pos:R:3:forces:R:3 config_type=qcd dft_energy=-17.55383796 gap_energy=-16.96664877623088 relaxed_gap_energy=-17.40950176097294 energy=-17.40950176097294 free_energy=-17.40950176097294 pbc="T T T"
Tl       9.61328318      11.00157081       8.22710127       0.00020456      -0.00006932       0.00009569
Tl       7.07163285      12.27690242       9.59911780       0.00011551      -0.00008408       0.00019146
Tl       7.00091812      10.11050501      11.93984095       0.00052242       0.00044576       0.00036754
Tl      12.34414507       9.63742891       8.48127085       0.00015365      -0.00024082      -0.00023024
Tl      10.07014586      12.11963046      11.15276612      -0.00032934       0.00063135      -0.00004360
Tl       7.71294255       8.57489908       9.06620029      -0.00055401      -0.00012844      -0.00024939
Tl      12.81204794      10.17498727      11.53033227      -0.00054521       0.00054074       0.00033362
Tl       9.87363770       8.95248294      11.26471541       0.00010506      -0.00063735      -0.00009023
Tl      11.22652079       6.80618051       9.61802736       0.00002744      -0.00051978      -0.00036360
Tl       9.93157378       8.00217981       6.78334586       0.00029993       0.00006195      -0.00001125
11
Lattice="17.980719 0.0 0.0 0.0 17.980719 0.0 0.0 0.0 17.980719" Properties=species:S:1:pos:R:3:forces:R:3 config_type=qcd dft_energy=-19.47229864 gap_energy=-19.054571043443204 relaxed_gap_energy=-19.46572182383028 energy=-19.46572182383028 free_energy=-19.46572182383028 pbc="T T T"
Tl       6.58640232       6.79929695      11.21921481       0.00001441      -0.00013487       0.00004130
Tl       9.23601274       9.04488544      10.52514476      -0.00015066       0.00019444      -0.00026852
Tl      12.06256642       8.28327911       9.30685442       0.00015508       0.00006232       0.00017168
Tl       9.04036888       6.21993930       9.23345013       0.00000792      -0.00016502       0.00009822
Tl      11.25909753      10.80400617       7.20083079       0.00006834      -0.00000236       0.00004248
Tl       8.14713342      12.29893335       9.18664376      -0.00001262       0.00024857       0.00010671
Tl      11.13615830      11.54553650      10.37863242      -0.00010098      -0.00008096      -0.00005536
Tl      10.39558407       7.33437974       6.55701531      -0.00014908      -0.00005257      -0.00022493
Tl       6.18549661       9.74333631      10.06627852       0.00010634       0.00000590      -0.00005066
Tl       6.39976583       7.22671599       7.70176074       0.00005258       0.00011000       0.00001043
Tl       8.44536837       9.59364566       7.51812884       0.00000867      -0.00018545       0.00012863
11
Lattice="18.48095779620206 0.0 0.0 0.0 18.48095779620206 0.0 0.0 0.0 18.48095779620206" Properties=species:S:1:pos:R:3:forces:R:3 config_type=qcd dft_energy=-19.43957436 gap_energy=-19.014848376616264 relaxed_gap_energy=-19.39201332008306 energy=-19.39201332008306 free_energy=-19.39201332008306 pbc="T T T"
Tl      11.55249344      11.48597998       9.87272580      -0.00045477       0.00010913       0.00000400
Tl      10.29486684      10.58511924       6.18416860       0.00025050       0.00027169       0.00034598
Tl      11.31489536       8.63972941       8.45324078      -0.00020383      -0.00000851       0.00019737
Tl       9.85830050       9.29775866      11.45625698       0.00026191      -0.00056762      -0.00005142
Tl      10.24545060       6.32386455      10.36730563      -0.00030661       0.00032252      -0.00040514
Tl       9.40199674       7.03997029       6.51719706      -0.00019318      -0.00021427       0.00023467
Tl       8.96240613      12.51751441       8.39155951       0.00009913      -0.00015252      -0.00026967
Tl       7.41428386       6.39237913       8.96797990       0.00075921      -0.00021734       0.00033859
Tl       7.86082582       9.52060147       8.51353926      -0.00051655       0.00044153      -0.00009020
Tl       6.92423410       8.14312747      11.63069106      -0.00025785      -0.00020982      -0.00010286
Tl       7.81551447      11.69922327      11.29060331       0.00056204       0.00022522      -0.00020131
11
Lattice="18.03987002858444 0.0 0.0 0.0 18.03987002858444 0.0 0.0 0.0 18.03987002858444" Properties=species:S:1:pos:R:3:forces:R:3 config_type=qcd dft_energy=-19.43847341 gap_energy=-19.06995305264359 relaxed_gap_energy=-19.4304136148081 energy=-19.4304136148081 free_energy=-19.4304136148081 pbc="T T T"
Tl      10.20454677       5.81928993       8.18367674      -0.00007734      -0.00022699      -0.00024565
Tl       9.24602625       7.04081559      12.07076507      -0.00046798       0.00014663       0.00000300
Tl       7.69380141       7.78979057       6.23868369       0.00038069       0.00030704       0.00014754
Tl      10.54059141       8.87966650       9.54248743       0.00060189      -0.00013449      -0.00006307
Tl      10.75044518       8.63529954       6.49805153      -0.00015096       0.00030596      -0.00013028
Tl       7.56046664       7.14739393       9.39822055       0.00003572       0.00047564      -0.00023014
Tl       6.72647063       9.67506822      11.18256403      -0.00015955       0.00000225      -0.00058587
Tl       9.57870406      10.36073203      12.23803786       0.00016062       0.00061998      -0.00008471
Tl       7.50212713      10.32258189       8.19135393      -0.00009917      -0.00087484       0.00046237
Tl       9.78559517      12.03221658       9.50548124       0.00042231      -0.00016163       0.00013435
Tl       9.63051050      11.51643038       6.16996308      -0.00064623      -0.00045955       0.00059244
11
Lattice="18.50004347277771 0.0 0.0 0.0 18.50004347277771 0.0 0.0 0.0 18.50004347277771" Properties=species:S:1:pos:R:3:forces:R:3 config_type=qcd dft_energy=-19.42895175 gap_energy=-19.05473650317351 relaxed_gap_energy=-19.4811352723295 energy=-19.4811352723295 free_energy=-19.4811352723295 pbc="T T T"
Tl      10.69095657       9.37399323       8.68268936      -0.00006821       0.00002912       0.00006180
Tl       7.43942518      10.05224795       8.57339894       0.00003513      -0.00029554       0.00019947
Tl       7.51096890       7.21281868      10.15585154      -0.00052502      -0.00005301      -0.00026597
Tl       9.38412306       9.71369344       5.81262358      -0.00000546       0.00016233       0.00017054
Tl      11.59759131      11.13056789      11.27017150      -0.00017433       0.00037190      -0.00013199
Tl       7.86147539      11.74174317      11.24386489       0.00000379       0.00009654      -0.00025019
Tl       9.78871850       6.54445373       7.98405034       0.00006489      -0.00021443       0.00037770
Tl       9.26719188       9.07754329      11.81570341       0.00042062       0.00006426      -0.00025227
Tl       7.01440857       7.48810348       6.68833052      -0.00020268      -0.00028623      -0.00018918
Tl       9.78513374      12.42298491       8.67883456       0.00028352       0.00050918       0.00039549
Tl      11.41024597       6.99208934      10.84472045       0.00016774      -0.00038411      -0.00011540
12
Lattice="21.3189137895531 0.0 0.0 0.0 21.3189137895531 0.0 0.0 0.0 21.3189137895531" Properties=species:S:1:pos:R:3:forces:R:3 config_type=qcd dft_energy=-21.70146337 gap_energy=-21.084421682092643 relaxed_gap_energy=-21.57790320407291 energy=-21.57790320407291 free_energy=-21.57790320407291 pbc="T T T"
Tl       9.28900145       8.66570815       8.92439319      -0.00004115      -0.00000105       0.00016710
Tl       7.10001488      10.12238914      10.75901822      -0.00023779       0.00000680      -0.00019062
Tl      11.31037597      11.06401424       9.28416682      -0.00009956      -0.00011813       0.00015788
Tl       8.63067173      13.22759290      11.64450462      -0.00004792      -0.00012133       0.00026791
Tl      14.14161105      11.57553700      10.60647787       0.00012978       0.00010116      -0.00006398
Tl      12.77219863       9.00937099      11.95456782       0.00004011      -0.00003228       0.00001125
Tl      12.13866111      12.34463840      13.24748253      -0.00000767      -0.00002154      -0.00013469
Tl       8.52554772      12.18640021       8.45947838      -0.00000050      -0.00012860      -0.00011100
Tl      10.03072567       7.23398797      11.64255834      -0.00014359       0.00023394      -0.00008667
Tl      12.51449809       8.06546990       8.94951349       0.00015201       0.00008703      -0.00001085
Tl      11.49215711      13.96279083      10.38289764       0.00020583       0.00010564      -0.00007202
Tl       9.96801931      10.45558303      12.05842384       0.00005045      -0.00011163       0.00006571
13
Lattice="18.93989323989008 0.0 0.0 0.0 18.93989323989008 0.0 0.0 0.0 18.93989323989008" Properties=species:S:1:pos:R:3:forces:R:3 config_type=qcd dft_energy=-23.74862092 gap_energy=-23.059478721411338 relaxed_gap_energy=-23.56709613955991 energy=-23.56709613955991 free_energy=-23.56709613955991 pbc="T T T"
Tl      12.82697129       9.71290158      10.44689298      -0.00007136      -0.00007415       0.00016273
Tl      11.42465802      11.56577865       8.15352715       0.00010884       0.00033014      -0.00017969
Tl      11.77097400       7.43919800       7.96271847      -0.00003712       0.00002722      -0.00033557
Tl       9.86013155      12.64500904      10.86845352       0.00024995      -0.00043122      -0.00009632
Tl      10.04012095       9.74072382      12.45260879      -0.00003536      -0.00023207      -0.00015241
Tl       9.33594679       9.27008157       6.29293743       0.00017055      -0.00062121       0.00041124
Tl      10.91339584       6.66709355      11.43278093       0.00015316       0.00011362       0.00025248
Tl       9.59663875       9.38540771       9.40790083       0.00003427       0.00024750      -0.00005133
Tl       8.26895720      12.30214301       7.32114814      -0.00040149       0.00038392      -0.00005026
Tl       7.08955247      10.98865101       9.98724610      -0.00028190      -0.00019437      -0.00028394
Tl       8.47594719       6.52808681       9.21335596       0.00018305      -0.00013222       0.00028361
Tl       7.11343875       8.19800554      11.73107636      -0.00021762      -0.00016095      -0.00020696
Tl       6.39257327       8.66622578       7.83865939       0.00014503       0.00074380       0.00024641
14
Lattice="19.60817230432632 0.0 0.0 0.0 19.60817230432632 0.0 0.0 0.0 19.60817230432632" Properties=species:S:1:pos:R:3:forces:R:3 config_type=qcd dft_energy=-26.06943754 gap_energy=-25.21476632864317 relaxed_gap_energy=-25.713083057100757 energy=-25.713083057100757 free_energy=-25.713083057100757 pbc="T T T"
Tl      10.38167703      13.06207650       8.88718702      -0.00036838       0.00005163       0.00033446
Tl      12.40706419      10.48956219       8.13660014       0.00028881      -0.00013647      -0.00020646
Tl       7.31166783      11.88786788      11.41340200       0.00010131      -0.00077755       0.00030657
Tl       9.91404714      10.39967130       6.02084368       0.00002646      -0.00027876      -0.00067550
Tl      13.17577452      10.91482993      11.26187972       0.00042621      -0.00059482      -0.00016271
Tl       7.74197356      11.11438538       8.22093576      -0.00003179      -0.00027454      -0.00008258
Tl       9.91920995       9.82227871       9.87302898       0.00005549       0.00064954      -0.00019248
Tl       9.89286263       9.20231222      13.21524566       0.00046317      -0.00016196       0.00018517
Tl      12.04220372       7.85953141      10.97618880      -0.00066814      -0.00008613       0.00030883
Tl      10.39554740      12.14923541      11.96102574      -0.00047619       0.00047235       0.00026539
Tl      10.24698360       7.67376117       7.72334321      -0.00007851      -0.00001768       0.00020187
Tl       7.41778754       8.61791617      11.12747938      -0.00025538       0.00041439      -0.00046134
Tl       7.09079807       7.93235034       7.96381336       0.00006208       0.00030940       0.00000179
Tl       9.31960895       6.13142751      10.47623270       0.00045484       0.00043059       0.00017699
15
Lattice="19.72937492520786 0.0 0.0 0.0 19.72937492520786 0.0 0.0 0.0 19.72937492520786" Properties=species:S:1:pos:R:3:forces:R:3 config_type=qcd dft_energy=-28.00882183 gap_energy=-27.31791103991636 relaxed_gap_energy=-27.878090756722905 energy=-27.878090756722905 free_energy=-27.878090756722905 pbc="T T T"
Tl       8.55379798       9.60616761       6.61261193       0.00053021       0.00040710      -0.00042723
Tl      10.90159482       7.72334105       7.87717142      -0.00052582       0.00013975      -0.00004846
Tl      10.03435229      12.23094779       7.86684884       0.00004419      -0.00010435      -0.00054825
Tl      12.56983586      10.43454093       7.19014624      -0.00016955      -0.00029307      -0.00005682
Tl       6.85798718       9.28665274       9.38161098      -0.00009579       0.00013798       0.00013208
Tl       8.34138858       6.39211517       9.21169526       0.00029026      -0.00005361       0.00001543
Tl       7.08969148      12.45443716       9.23822892      -0.00051671      -0.00028888      -0.00010847
Tl       9.86542182       9.86579815       9.86368271       0.00078353      -0.00011050       0.00026915
Tl      12.34793547      12.78567052      10.17192847       0.00034580       0.00047679       0.00037460
Tl      12.91380194       9.66472432      10.39477228      -0.00042729      -0.00010526      -0.00052577
Tl       9.43418015      12.41267136      11.57748482      -0.00029272       0.00016691       0.00032454
Tl      11.74068672       6.66990079      10.90328346       0.00001382      -0.00032107      -0.00019751
Tl       7.09769920      10.45127672      12.47334292       0.00052007      -0.00016589      -0.00025051
Tl       9.04721996       7.87021935      12.09023880      -0.00023568       0.00016301       0.00084360
Tl      11.17471848      10.12184828      13.11726489      -0.00026432      -0.00004890       0.00020360
16
Lattice="25.48281079784554 0.0 0.0 0.0 25.48281079784554 0.0 0.0 0.0 25.48281079784554" Properties=species:S:1:pos:R:3:forces:R:3 config_type=qcd dft_energy=-30.09810376 gap_energy=-29.20425844378785 relaxed_gap_energy=-29.5579535798702 energy=-29.5579535798702 free_energy=-29.5579535798702 pbc="T T T"
Tl      14.99434979      10.22317457      11.41917073       0.00057688       0.00045321      -0.00003755
Tl      12.65698132      17.45970496      12.83864407       0.00016728      -0.00044778      -0.00000482
Tl      12.75416995      11.92993597      16.75589531      -0.00022045      -0.00025684      -0.00053704
Tl      12.74641904      12.50093493      12.53377161      -0.00038267      -0.00037251       0.00018155
Tl      12.80039166       9.73389387      14.22925350       0.00043591      -0.00002328       0.00012863
Tl      15.12933688      12.33815394      14.59038121      -0.00001726      -0.00008413       0.00026282
Tl      12.70954037      14.67612196      14.62008005      -0.00025572       0.00027909      -0.00028842
Tl      10.37116582      12.25223027      14.58889517       0.00046441      -0.00014716      -0.00029686
Tl      15.56904000      15.73699160      13.43104835       0.00022571       0.00008185       0.00023967
Tl      15.69073534      13.34101195      11.34740634       0.00027244      -0.00005344      -0.00003273
Tl       9.81133965      15.63369626      13.43698295      -0.00031649       0.00004233      -0.00018315
Tl      12.69953377      15.07823753      10.56576623      -0.00006016      -0.00027198      -0.00029890
Tl       9.77276818      13.23935065      11.34834118      -0.00022319       0.00067744       0.00043644
Tl      12.82192284       7.95025226      11.39862271      -0.00045023       0.00021027       0.00019797
Tl      12.75901152      11.62033789       9.33580051      -0.00005782       0.00024742      -0.00007092
Tl      10.57578024      10.14845778      11.42242646      -0.00015863      -0.00033447       0.00030330
17
Lattice="19.77993472633472 0.0 0.0 0.0 19.77993472633472 0.0 0.0 0.0 19.77993472633472" Properties=species:S:1:pos:R:3:forces:R:3 config_type=qcd dft_energy=-32.0089342 gap_energy=-31.368626599543077 relaxed_gap_energy=-31.831123617949686 energy=-31.831123617949686 free_energy=-31.831123617949686 pbc="T T T"
Tl      13.81027195      11.34621412       8.32772416      -0.00036697      -0.00026444       0.00013347
Tl      10.92473636      12.79780363       8.49305016       0.00025857       0.00009434       0.00023611
Tl      10.28077843      10.01012043       7.06840854       0.00051163      -0.00049756      -0.00015638
Tl      14.12810350       8.73796353      11.39392315      -0.00000517       0.00015545       0.00009034
Tl      12.52840630       8.51388109       8.57462508       0.00036289       0.00061890      -0.00012038
Tl       8.52895885      12.96095203       6.37235658      -0.00011721       0.00019618      -0.00023559
Tl      11.93309877      11.30311177      11.14483753       0.00000125      -0.00001750      -0.00032586
Tl      11.03822725       7.28812387      11.17584023       0.00018368      -0.00006554       0.00016087
Tl      11.51522780       9.22339022      13.72922499      -0.00022727      -0.00025516      -0.00014739
Tl       7.05854506      10.23801462       7.36680018      -0.00012945      -0.00056403       0.00043667
Tl       9.47848443       9.76217917      10.04326813      -0.00002939       0.00068367       0.00021013
Tl       7.95179836      12.43656406       9.80748757      -0.00016369      -0.00058178      -0.00019277
Tl       9.38222447       6.85043360       8.30575365      -0.00028263       0.00008449       0.00011541
Tl       8.79615266      10.67256825      12.91959694      -0.00009300      -0.00022042      -0.00037056
Tl       8.10944028       7.36699366      12.35076777      -0.00012589      -0.00046942      -0.00004526
Tl       5.89397869      10.49193066      11.47039128       0.00037745       0.00017866       0.00033598
Tl       6.77101202       8.12920048       9.58538925      -0.00015481       0.00092414      -0.00012479
18