3
Lattice="17.75146170504952 0.0 0.0 0.0 17.75146170504952 0.0 0.0 0.0 17.75146170504952" Properties=species:S:1:pos:R:3:forces:R:3 config_type=qcd dft_energy=-16.75908664 gap_energy=-17.117862376070608 relaxed_gap_energy=-18.36157625403582 energy=-18.36157625403582 free_energy=-18.36157625403582 pbc="T T T"
V        8.69695770       7.83988063       8.78153209       0.00001735      -0.00065052      -0.00014718
V        9.75000061       8.88839785       8.28463395      -0.00029296       0.00037997       0.00027804
V        8.18023424       9.89891408       9.56102651       0.00027562       0.00027055      -0.00013086
4
Lattice="15.97453814239076 0.0 0.0 0.0 15.97453814239076 0.0 0.0 0.0 15.97453814239076" Properties=species:S:1:pos:R:3:forces:R:3 config_type=qcd dft_energy=-24.09948284 gap_energy=-24.192717249713127 relaxed_gap_energy=-27.99622687835098 energy=-27.99622687835098 free_energy=-27.99622687835098 pbc="T T T"
V       10.05207305       9.03028244       7.83302068       0.00038469      -0.00006855       0.00003583
V        8.55911020       9.52532240       7.92850181      -0.00036521       0.00007182       0.00012805
V        9.87634213      10.40775654      10.94688787       0.00018028       0.00040625      -0.00012041
V        9.39908393       8.92381656      11.17767594      -0.00019976      -0.00040952      -0.00004348
5
Lattice="16.033653 0.0 0.0 0.0 16.033653 0.0 0.0 0.0 16.033653" Properties=species:S:1:pos:R:3:forces:R:3 config_type=qcd dft_energy=-31.30668616 gap_energy=-30.638239943509134 relaxed_gap_energy=-37.63457095285757 energy=-37.63457095285757 free_energy=-37.63457095285757 pbc="T T T"
V        7.68018002       6.74230516       7.17331561      -0.00004564      -0.00015883      -0.00009506
V        6.71104205       9.61655132       8.88759993      -0.00006511       0.00010395       0.00006414
V        9.18633846       6.78676834       7.62186720       0.00002304       0.00002215       0.00010862
V        8.64318457       7.84422062       6.59304914       0.00001166       0.00008590       0.00000658
V        7.86338739       9.09428706       9.80830061       0.00007605      -0.00005317      -0.00008429
6
Lattice="18.50061858823819 0.0 0.0 0.0 18.50061858823819 0.0 0.0 0.0 18.50061858823819" Properties=species:S:1:pos:R:3:forces:R:3 config_type=qcd dft_energy=-39.05599974 gap_energy=-38.36362221612875 relaxed_gap_energy=-39.09489953784592 energy=-39.09489953784592 free_energy=-39.09489953784592 pbc="T T T"
V        9.30993867      11.08280989       9.32039460       0.00008743       0.00022987       0.00017445
V       10.57229095      10.22301399      10.07061022      -0.00008935      -0.00014130      -0.00003065
V        9.59559662       8.85002049       7.90696584      -0.00005802      -0.00010351       0.00001354
V        9.58008021       7.52763892      10.29852786       0.00010178       0.00009759      -0.00000246
V        8.42353461       8.67297914      10.28334590      -0.00001234       0.00001586      -0.00002842
V        8.02041470       9.14539333       7.62201135      -0.00002951      -0.00009852      -0.00012645
7
Lattice="18.68477965743404 0.0 0.0 0.0 18.68477965743404 0.0 0.0 0.0 18.68477965743404" Properties=species:S:1:pos:R:3:forces:R:3 config_type=qcd dft_energy=-46.96242542 gap_energy=-46.34675766855892 relaxed_gap_energy=-46.674353162757114 energy=-46.674353162757114 free_energy=-46.674353162757114 pbc="T T T"
V        8.47050664       8.19861798      10.73260476       0.00011154      -0.00022856       0.00040649
V        9.80818901       7.57736375       9.28494392      -0.00012198       0.00034429      -0.00031942
V       10.20393423      11.05375687       8.76736137      -0.00034672      -0.00014583      -0.00013356
V       10.75818797       9.14337932       8.20610943       0.00046449      -0.00010781      -0.00003775
V       10.15703568       9.60814854      10.44629683      -0.00015142      -0.00015237       0.00022619
V        7.69009596      10.52891926       9.60939634       0.00009475       0.00029141      -0.00013384
V        8.30877931       9.28654309       8.35001615      -0.00005067      -0.00000113      -0.00000812
8
Lattice="30.0 0.0 0.0 0.0 30.0 0.0 0.0 0.0 30.0" Properties=species:S:1:pos:R:3:forces:R:3 config_type=qcd dft_energy=-54.73714575 gap_energy=-54.37935495006728 relaxed_gap_energy=-54.4414285214783 energy=-54.4414285214783 free_energy=-54.4414285214783 pbc="T T T"
V        6.11202433       8.02872439       5.88912981       0.00050156       0.00013674       0.00030299
V        7.68694660       9.16674787       6.51400443      -0.00012120      -0.00002125      -0.00021555
V        8.00495555       6.67972571       6.36231769      -0.00006466       0.00022942       0.00040607
V        5.59118833       6.39473289       6.99571662      -0.00066646      -0.00046939      -0.00007916
V        9.10457345       8.30103113       7.70001947      -0.00000888      -0.00012007      -0.00005502
V        7.00875489       5.52896730       8.18177132       0.00046289       0.00061627      -0.00010838
V        6.69077575       8.01598961       8.33340319       0.00009062      -0.00011716      -0.00014206
V        8.58370525       6.66700526       8.80656163      -0.00019387      -0.00025455      -0.00010890
8
Lattice="16.817949 0.0 0.0 0.0 16.817949 0.0 0.0 0.0 16.817949" Properties=species:S:1:pos:R:3:forces:R:3 config_type=qcd dft_energy=-54.70758607 gap_energy=-53.872090041401435 relaxed_gap_energy=-54.017722373503545 energy=-54.017722373503545 free_energy=-54.017722373503545 pbc="T T T"
V        9.57611826       9.97941427       8.61215721       0.00007524       0.00038293      -0.00020574
V       10.12387835       7.78122072       8.92535754      -0.00019310      -0.00005146       0.00080851
V        6.30706511       7.86843366       8.38101575      -0.00058262      -0.00036681      -0.00004084
V        7.26675089       9.61680040       7.49441648       0.00029508       0.00064991       0.00034948
V        8.00931647       7.37546410       7.34805630       0.00006192      -0.00069048      -0.00014025
V        8.41868733       6.82912543       9.89833184       0.00017005       0.00050620      -0.00059304
V        8.24707468       8.87384649       9.86313226       0.00040414      -0.00034086      -0.00009262
V        9.32290489       8.94749093       6.74932863      -0.00023072      -0.00008942      -0.00008550
9
Lattice="17.11834947535228 0.0 0.0 0.0 17.11834947535228 0.0 0.0 0.0 17.11834947535228" Properties=species:S:1:pos:R:3:forces:R:3 config_type=qcd dft_energy=-61.99639131 gap_energy=-60.93986719787827 relaxed_gap_energy=-61.75017282607341 energy=-61.75017282607341 free_energy=-61.75017282607341 pbc="T T T"
V        9.52629527       7.44557833      10.16510342       0.00010952       0.00009644       0.00050980
V        7.54860253       7.95598441       7.24081576      -0.00005609       0.00014061      -0.00069061
V        7.43489219       7.28000282       9.03128498       0.00024725      -0.00068818       0.00044742
V        7.13901281       9.90334124       8.97675781      -0.00000004       0.00064816       0.00044536
V        8.01756845       8.94493603      10.63566893      -0.00033810       0.00001990      -0.00018168
V        9.47854811       9.37018866       8.92375798       0.00058430      -0.00002703       0.00020757
V        9.74343325       8.74014461       6.73731621       0.00074252      -0.00019537       0.00007485
V        9.90926245       7.15283701       8.11368538      -0.00047157      -0.00010347      -0.00051195
V        8.23495758      10.23955951       7.20818216      -0.00081778       0.00010896      -0.00030075
10
Lattice="16.555795 0.0 0.0 0.0 16.555795 0.0 0.0 0.0 16.555795" Properties=species:S:1:pos:R:3:forces:R:3 config_type=qcd dft_energy=-70.31025076 gap_energy=-68.25228882877576 relaxed_gap_energy=-69.06806127715483 energy=-69.06806127715483 free_energy=-69.06806127715483 pbc="T T T"
V       10.05415542       8.26982068       9.40605287       0.00034132      -0.00020197      -0.00065152
V        6.53261542       8.26373414       9.45332312      -0.00037098       0.00035655       0.00012798
V        8.28898873      10.02778059       9.44669385      -0.00014270      -0.00014894       0.00033306
V        8.29796758       6.50588960       9.41271859      -0.00003478       0.00008555       0.00058244
V        9.50560042       9.53630458       7.12136365      -0.00040211      -0.00063104      -0.00039433
V        9.51059819       7.04712657       7.09734556       0.00020116       0.00046826       0.00034648
V        7.01410696       9.53072017       7.15484522      -0.00001724      -0.00013452       0.00049347
V        7.01914413       7.04174258       7.13078403       0.00042060       0.00035543      -0.00002242
V        8.30989564       8.25508847      10.65450001      -0.00032425      -0.00022981      -0.00083863
V        8.24590251       8.30076762       5.90134808       0.00032898       0.00008049       0.00002346
11
Lattice="17.245174 0.0 0.0 0.0 17.245174 0.0 0.0 0.0 17.245174" Properties=species:S:1:pos:R:3:forces:R:3 config_type=qcd dft_energy=-77.05380714 gap_energy=-75.5841994539689 relaxed_gap_energy=-76.31303825248473 energy=-76.31303825248473 free_energy=-76.31303825248473 pbc="T T T"
V       10.44799529       9.55106783       8.96273564       0.00002417       0.00008169      -0.00007335
V        7.00693494       8.43144507       7.33296748       0.00004783       0.00002268      -0.00006612
V        7.02149907      10.35448009       8.16222213       0.00011289      -0.00012043       0.00017430
V        7.73410249       6.77167814       9.45494993       0.00001228      -0.00035966      -0.00014957
V        8.73065174       7.42346585       6.93133033      -0.00008876       0.00002774      -0.00004996
V        9.90762767       6.86691923       9.37496710       0.00006123      -0.00003093       0.00003675
V       10.61196416       8.25437822       7.32642811      -0.00014908       0.00006097      -0.00015364
V        8.85116696       8.15535672      10.77608152      -0.00012191       0.00023002       0.00044693
V        8.72424686      10.55896249       9.36426451       0.00013074       0.00003753      -0.00005447
V        6.84746975       8.65633766      10.08803288      -0.00014598       0.00004619      -0.00005318
V        8.96479798       9.82436541       7.07447728       0.00011659       0.00000419      -0.00005769
12
Lattice="16.438127 0.0 0.0 0.0 16.438127 0.0 0.0 0.0 16.438127" Properties=species:S:1:pos:R:3:forces:R:3 config_type=qcd dft_energy=-84.85485267 gap_energy=-84.28297682859443 relaxed_gap_energy=-84.49644989203318 energy=-84.49644989203318 free_energy=-84.49644989203318 pbc="T T T"
V        8.57791101       8.85851432       8.21558365      -0.00022451       0.00061543      -0.00053834
V        8.26942393       9.32416629      10.54858929       0.00017620      -0.00015253       0.00029466
V        8.21040215       7.35487813      10.41074943      -0.00016889       0.00059753      -0.00026283
V        7.84594001       9.53686923       6.03391771      -0.00044752      -0.00012867       0.00028587
V        8.66703766       7.07552123       6.20854375       0.00021234       0.00023817       0.00000529
V        9.77047485       6.46911997       8.50402698       0.00008255      -0.00011953      -0.00014465
V        6.62763176      10.23376754       8.46326772       0.00052383      -0.00038783       0.00041164
V        7.34938035       6.66905794       8.22737556       0.00005331      -0.00036007       0.00049981
V       10.50231483       8.06510552       9.40808304      -0.00009618      -0.00016191       0.00002682
V       10.24052808       8.19658836       6.61774066       0.00003539      -0.00021714       0.00017271
V        6.14279113       8.50899500       9.29410061      -0.00017604       0.00000851      -0.00062229
V        6.42492626       8.33617847       6.69678360       0.00002952       0.00006804      -0.00012869
13
Lattice="17.061353 0.0 0.0 0.0 17.061353 0.0 0.0 0.0 17.061353" Properties=species:S:1:pos:R:3:forces:R:3 config_type=qcd dft_energy=-92.67943367 gap_energy=-91.53125564719976 relaxed_gap_energy=-92.00830410510582 energy=-92.00830410510582 free_energy=-92.00830410510582 pbc="T T T"
V        7.47960874       8.85101492      10.45723439       0.00056352      -0.00011342      -0.00050954
V        7.26987016       9.40800722       6.54308877       0.00027462       0.00003633       0.00079999
V        7.39560551      10.40846586       8.20895295      -0.00039987       0.00044248      -0.00050254
V        8.66489297       8.00836167       8.16365990       0.00024383       0.00005258       0.00070248
V        9.75559373      10.07173262       9.55229004      -0.00040036      -0.00068017      -0.00006398
V        6.07270338       8.30881092       8.46908495       0.00003940       0.00005439      -0.00039557
V        6.60419839       6.92269318       7.48894036      -0.00041414       0.00008100      -0.00003111
V        9.73417853       7.78620050      10.55334307       0.00010621       0.00002646       0.00033281
V        9.88931660       8.68464831       6.18279072       0.00007232       0.00034166      -0.00021181
V       11.01498427       8.87335687       8.67505983      -0.00028168       0.00005837       0.00005769
V        9.60373137      10.20265747       7.06517649      -0.00026570      -0.00013296      -0.00029158
V       10.01068299       6.43650802       9.42815315       0.00032430      -0.00040861       0.00020711
V        7.40342787       6.93633695      10.11101989       0.00013756       0.00024188      -0.00009396
14
Lattice="17.40014010924525 0.0 0.0 0.0 17.40014010924525 0.0 0.0 0.0 17.40014010924525" Properties=species:S:1:pos:R:3:forces:R:3 config_type=qcd dft_energy=-100.81000518 gap_energy=-99.84668007725388 relaxed_gap_energy=-100.45797961436136 energy=-100.45797961436136 free_energy=-100.45797961436136 pbc="T T T"
V        9.50907543       9.11161701       6.11064769      -0.00029065      -0.00036486       0.00034160
V       10.08984297       6.97427356       7.35088556      -0.00039583      -0.00060620      -0.00027268
V        8.01113305       6.97288046       6.73007907       0.00030685       0.00044540      -0.00063466
V        8.28574091       8.94548592       8.35879487       0.00077101      -0.00004408      -0.00054507
V        9.55092710      10.93087145       7.35386604      -0.00002897      -0.00001345       0.00044884
V       11.02070290       9.33656864       7.68469546       0.00000584      -0.00078328      -0.00009030
V        8.49756008       6.11295446       8.66165267       0.00011730       0.00086839      -0.00006832
V        6.29873492       7.37605617       8.75587473      -0.00048292      -0.00015492       0.00046755
V        8.11287444      11.18372972       9.61620700      -0.00012744       0.00006240      -0.00029528
V        6.33989539       9.19482670      10.00091293      -0.00030231      -0.00057747      -0.00009479
V       10.17529683      10.53555477       9.78109820      -0.00025061       0.00050376       0.00053431
V        7.46873247       7.41583339      10.61179292       0.00043507       0.00012445      -0.00011383
V        9.86501086       8.03932378       9.68465708      -0.00010746       0.00049180       0.00023001
V        8.57545341       9.67100474      11.09981656       0.00035012       0.00004806       0.00009263
14
Lattice="16.849991 0.0 0.0 0.0 16.849991 0.0 0.0 0.0 16.849991" Properties=species:S:1:pos:R:3:forces:R:3 config_type=qcd dft_energy=-100.79264245 gap_energy=-100.009934290903 relaxed_gap_energy=-100.5878656353238 energy=-100.5878656353238 free_energy=-100.5878656353238 pbc="T T T"
V        8.46660902       8.22740015       8.17679617       0.00013231       0.00038188       0.00018491
V        8.58920445       5.86386708       9.02546546      -0.00001812      -0.00028172       0.00022464
V        7.17778197       9.60999906       9.81873421       0.00002154      -0.00018226      -0.00044139
V        9.55018636       9.94064056       9.86833876       0.00018527       0.00045053      -0.00067393
V       10.58069342       7.46186481       9.32050280       0.00018552      -0.00003157       0.00002166
V        7.89302224      10.73416431       7.80295753       0.00013774       0.00006530       0.00027719
V        6.07950910       9.15191082       8.06677282      -0.00011094      -0.00024043       0.00006581
V        9.24868395       9.69802851       6.28405430       0.00019758      -0.00041054       0.00026774
V       10.49389403       9.98281924       8.24586367      -0.00016339      -0.00029014       0.00052607
V        7.22834639       9.05089980       6.25166898      -0.00026631      -0.00015667       0.00017148
V        8.63001827       7.41557656      10.65430838      -0.00023934      -0.00016841      -0.00005640
V        7.03190912       6.53138785       7.51769492      -0.00026628       0.00022290       0.00004160
V       10.31647017       7.35235392       7.33887903       0.00015206       0.00048737      -0.00041804
V        6.66360852       6.92902434       9.57789999       0.00005237       0.00015375      -0.00019134
15
Lattice="20.6930490576484 0.0 0.0 0.0 20.6930490576484 0.0 0.0 0.0 20.6930490576484" Properties=species:S:1:pos:R:3:forces:R:3 config_type=qcd dft_energy=-109.20255367 gap_energy=-108.55489735531484 relaxed_gap_energy=-108.97988896773305 energy=-108.97988896773305 free_energy=-108.97988896773305 pbc="T T T"
V       11.62754811      11.82588459      11.97972422       0.00021247      -0.00085290      -0.00044656
V       10.65566048       9.37479816      12.74578916       0.00018087       0.00017161       0.00030082
V       10.04686563      12.85729866      10.33640277       0.00006096       0.00002019      -0.00029796
V        8.89284743      11.18962288      12.20838274      -0.00034087       0.00023636      -0.00010168
V       12.76078129      10.44890802      11.34613657      -0.00023848      -0.00008282       0.00011622
V       10.33999062      10.33572295      10.36148329       0.00031145      -0.00021210      -0.00021358
V       11.90430732      11.94929140       9.24028895      -0.00022768       0.00029565       0.00037843
V        8.64604724       8.69785267      11.12511214       0.00030202       0.00030979      -0.00014190
V       11.27051305       8.15141627      11.41637099      -0.00017671       0.00008750      -0.00027221
V        7.89621201      11.19305017      10.55024630       0.00030234      -0.00024939       0.00019172
V       12.31901399       9.48755397       9.17479466      -0.00011555       0.00015635       0.00054002
V        9.63049308      11.95235226       8.50205991      -0.00012421      -0.00018761      -0.00033796
V       10.85370592      10.19189576       7.87134569       0.00001954       0.00012633       0.00014236
V        9.95784541       8.05967267       9.35218183       0.00029675       0.00011771      -0.00021112
V        8.39603634       9.48254748       8.98754874      -0.00046289       0.00006334       0.00035341
15
Lattice="20.08945211669184 0.0 0.0 0.0 20.08945211669184 0.0 0.0 0.0 20.08945211669184" Properties=species:S:1:pos:R:3:forces:R:3 config_type=qcd dft_energy=-109.19081496 gap_energy=-108.94212073911646 relaxed_gap_energy=-109.02804814419562 energy=-109.02804814419562 free_energy=-109.02804814419562 pbc="T T T"
V       10.04473197      10.04473062      10.04473447      -0.00033277      -0.00001020      -0.00003047
V       10.97789017      11.91468550      11.61146181       0.00022969      -0.00007746      -0.00002281
V        9.11007389       8.17420801       8.47955661      -0.00006095       0.00025123      -0.00019470
V        9.78072900      12.46416773       9.49855170      -0.00019224      -0.00040753      -0.00031916
V       12.47465497      10.20986479      10.58238737       0.00031030      -0.00011232      -0.00022887
V       11.41769681       9.07034052       8.20433159      -0.00007430       0.00006235       0.00002761
V        9.86232266      10.37163011       7.57875278       0.00019694       0.00055190       0.00039304
V       11.13191172       7.80551604       9.88466557       0.00027550       0.00029730       0.00029027
V        8.55191903      11.75524035      11.07766489      -0.00001490      -0.00001260      -0.00015648
V        8.02087340      10.40879255       8.63329497       0.00006142      -0.00021158      -0.00011244
V       11.24650836       9.50069013      12.16138846       0.00027211      -0.00000366       0.00045394
V        9.28495259      10.27329235      12.40930358      -0.00020979       0.00002473       0.00024300
V        9.29024660       7.84228904      10.93979255      -0.00020282      -0.00030242      -0.00021775
V        7.73449806       9.14408919      10.31385602      -0.00010222       0.00016743       0.00012924
V       11.74188161      11.69135396       9.25114853      -0.00015595      -0.00021718      -0.00025442
16
Lattice="20.39104296709894 0.0 0.0 0.0 20.39104296709894 0.0 0.0 0.0 20.39104296709894" Properties=species:S:1:pos:R:3:forces:R:3 config_type=qcd dft_energy=-117.55644698 gap_energy=-116.60911688720137 relaxed_gap_energy=-116.76912887863436 energy=-116.76912887863436 free_energy=-116.76912887863436 pbc="T T T"
V       10.18578344      10.18929121      10.20434807       0.00007629      -0.00007891       0.00052677
V       11.99457709       9.21410728      11.37259237      -0.00027251       0.00020792      -0.00046313
V        9.15502362      12.13350743      11.06143781      -0.00007215      -0.00084843       0.00005683
V        9.27571254       9.09399840       8.31924231      -0.00024623      -0.00016819       0.00049876
V       11.77591959       8.49178332       8.69272918       0.00019769      -0.00063054       0.00024759
V       11.80733970      11.76412072      11.80369885      -0.00047804       0.00002532      -0.00017861
V       12.59740119      10.87288490       9.49133223      -0.00064933       0.00002434       0.00032286
V       11.08889575      10.86660858       7.85809367       0.00005467       0.00033117      -0.00059560
V       11.07360833      12.49135444       9.37731768       0.00020908      -0.00015809      -0.00002802
V        8.70860337      11.80846871       8.50265732       0.00070733       0.00049169       0.00020807
V       10.61889029      10.72429968      12.88372722       0.00006878       0.00025843      -0.00024860
V       10.59141978       7.48083328       9.78940285       0.00032898       0.00008864       0.00005228
V        7.54683200      10.77535956       9.59337411      -0.00028377       0.00005799       0.00067790
V       10.08481160       8.52572794      12.16025477       0.00012570      -0.00009156      -0.00015550
V        8.22511917      10.34560778      11.85315275       0.00008039       0.00019152      -0.00070609
V        8.39840625       8.35039051      10.16498255       0.00015310       0.00029870      -0.00021550
17
Lattice="20.48109790707159 0.0 0.0 0.0 20.48109790707159 0.0 0.0 0.0 20.48109790707159" Properties=species:S:1:pos:R:3:forces:R:3 config_type=qcd dft_energy=-124.68240452 gap_energy=-124.24950065415277 relaxed_gap_energy=-124.78591076714758 energy=-124.78591076714758 free_energy=-124.78591076714758 pbc="T T T"
V        9.14309187      10.25069797       7.74207955       0.00008141       0.00021408       0.00002861
V       11.16996433       8.66681229       8.24020878       0.00001685      -0.00008888       0.00029225
V       11.60291153      10.74369285       7.93044114       0.00048868      -0.00003170      -0.00011696
V       12.52884581       9.59603889       9.76151658      -0.00006194       0.00013287      -0.00014864
V        8.55947716       8.36572157       9.08351180      -0.00024057      -0.00072203       0.00033995
V        9.51663913      12.21025393       8.52762413       0.00031856       0.00083190       0.00001208
V       10.24068113      10.24062776      10.24060655      -0.00020745      -0.00003388       0.00003862
V       12.01615096      12.29831761       9.69482365       0.00009160       0.00010169       0.00040947
V       10.82388277       7.90800552      10.55971033       0.00023325       0.00033558       0.00010463
V        8.01030687      10.99843194       9.66221134      -0.00029217       0.00003680       0.00006036
V        9.59926080      12.45961739      10.97904908      -0.00025580       0.00006191      -0.00029031
V       11.88233901       9.14858587      12.09800518      -0.00015442      -0.00011001      -0.00035052
V        8.15071425       8.50994358      10.80382840      -0.00066382      -0.00040313      -0.00015390
V        8.39280284      10.93632584      12.09633925       0.00053000      -0.00014531      -0.00014233
V        9.81034369       8.76967522      12.49847366       0.00025128      -0.00003541       0.00037376
V       12.23740748      11.78974957      11.37991254      -0.00030580      -0.00029003      -0.00021633
V       10.40451258      11.19683443      12.79099025       0.00017035       0.00014556      -0.00024075
18
Lattice="21.30622108013715 0.0 0.0 0.0 21.30622108013715 0.0 0.0 0.0 21.30622108013715" Properties=species:S:1:pos:R:3:forces:R:3 config_type=qcd dft_energy=-131.64233392 gap_energy=-130.4181384463842 relaxed_gap_energy=-131.25995782049003 energy=-131.25995782049003 free_energy=-131.25995782049003 pbc="T T T"
V       13.28709544      11.20094741      10.89906923      -0.00013492      -0.00033928      -0.00004868
V       12.63533425       8.98408706      11.67348426       0.00021736      -0.00011733       0.00020513
V       11.98649414      11.01813005      13.24049866       0.00037264      -0.00010514       0.00067540
V       12.82206463       9.77474609       9.30556259       0.00015349       0.00052909       0.00034100
V       10.86108277      10.43553416       7.88189935      -0.00029575      -0.00017512      -0.00039899
V       11.78893721      12.23562455       8.93054290      -0.00070050      -0.00000462      -0.00059295
V       10.32770906      13.55781887       9.60988505       0.00061004       0.00018468      -0.00049131
V       11.52010462       8.05765698      10.56315105      -0.00016947       0.00032194       0.00021437
V       10.66850628      10.67166266      10.71325135      -0.00003078      -0.00026811       0.00027277
V       10.44131857       8.92916836       8.75200334      -0.00010793       0.00023655      -0.00012209
V       11.68479207      12.78352777      11.52977658      -0.00009067      -0.00024076       0.00045164
V       10.10711716       9.25009447      12.53070887      -0.00007761       0.00051605      -0.00014003
V       10.21486624      11.79144850      13.28539401       0.00015877      -0.00008900      -0.00037201
V        8.43218015      10.68035615      11.61607208      -0.00038400       0.00019404       0.00010503
V        7.92232180       9.57804892       9.67058935       0.00021321      -0.00006869      -0.00000260
V        8.99537178      11.33004308       9.24120087       0.00004765       0.00051785       0.00031009
V        9.23608902      13.10984511      11.25409182       0.00000777      -0.00015609      -0.00013668
V        8.82460454       8.36724953      11.05880836       0.00021070      -0.00093607      -0.00027009
19
Lattice="21.37818519194403 0.0 0.0 0.0 21.37818519194403 0.0 0.0 0.0 21.37818519194403" Properties=species:S:1:pos:R:3:forces:R:3 config_type=qcd dft_energy=-139.28618733 gap_energy=-138.49181118567415 relaxed_gap_energy=-139.32631636438742 energy=-139.32631636438742 free_energy=-139.32631636438742 pbc="T T T"
V       11.25843001      10.21110537       8.05059773      -0.00007874       0.00057641       0.00035072
V        8.90205230      10.67533661       8.32204725      -0.00044109       0.00016647      -0.00024693
V       10.09519684      12.61244951       8.39339871      -0.00007938       0.00008601      -0.00007508
V       12.62455354      11.87084806       9.11487029      -0.00011676      -0.00016754       0.00001094
V       10.25284216       8.75681119       9.16765690       0.00064489      -0.00036391      -0.00042663
V       12.51163243       9.27099763      10.00712181       0.00007958      -0.00051010       0.00041510
V        7.93715745       9.64925473      10.30106069      -0.00004578      -0.00037435       0.00011381
V        8.52497127      12.31030768       9.95558489      -0.00036970      -0.00008795      -0.00009586
V       10.71887240      13.31618276      10.45644728      -0.00022398       0.00006057      -0.00087484
V       13.66885349       8.30037951      11.83865866       0.00013467       0.00002645      -0.00007372
V       12.19397259       7.68495873      11.83658389      -0.00031880      -0.00007920      -0.00015334
V       10.44674077      10.96961961      10.57207431       0.00017870       0.00067590       0.00061182
V       13.03289315      11.83489190      10.81502339       0.00024213      -0.00062788       0.00014255
V       10.24697444       8.89018246      11.62606702      -0.00001395       0.00004944      -0.00006849
V       11.28527185      12.55888624      12.77712639      -0.00012077      -0.00013786       0.00068360
V        7.95858745      10.44587453      11.88649514       0.00024193       0.00028383      -0.00021892
V       12.19338892      10.12704055      12.36128690       0.00055570      -0.00018732      -0.00038173
V        9.21293412      12.76080063      12.28796723      -0.00049360       0.00025454       0.00005580
V       10.02743412      10.84683163      13.32269082       0.00022496       0.00035649       0.00023119
20
Lattice="21.85906447273191 0.0 0.0 0.0 21.85906447273191 0.0 0.0 0.0 21.85906447273191" Properties=species:S:1:pos:R:3:forces:R:3 config_type=qcd dft_energy=-146.97992176 gap_energy=-146.11914755751073 relaxed_gap_energy=-147.57983267375346 energy=-147.57983267375346 free_energy=-147.57983267375346 pbc="T T T"
V       12.72467143      13.03669160       9.23233243       0.00023920       0.00018894      -0.00020213