3
Lattice="15.265985 0.0 0.0 0.0 15.265985 0.0 0.0 0.0 15.265985" Properties=species:S:1:pos:R:3:forces:R:3 config_type=qcd dft_energy=-24.60502273 gap_energy=-24.572280926076534 relaxed_gap_energy=-24.593833657061683 energy=-24.593833657061683 free_energy=-24.593833657061683 pbc="T T T"
W        6.59352989       6.85119450       7.63299250      -0.00038727       0.00031248       0.00000000
W        7.47569437       8.92412353       7.63299250      -0.00010155      -0.00045896       0.00000000
W        8.82975324       7.12365947       7.63299250       0.00048882       0.00014648       0.00000000
4
Lattice="17.36100843060997 0.0 0.0 0.0 17.36100843060997 0.0 0.0 0.0 17.36100843060997" Properties=species:S:1:pos:R:3:forces:R:3 config_type=qcd dft_energy=-34.81533287 gap_energy=-34.55723694065175 relaxed_gap_energy=-35.028604277950805 energy=-35.028604277950805 free_energy=-35.028604277950805 pbc="T T T"
W        9.53404053       8.61780369      10.11712405      -0.00016011       0.00013078       0.00058461
W        9.78435449       8.13293224       7.92894651       0.00014611      -0.00005277      -0.00062966
W        8.42788813      10.24567111       9.01611824      -0.00022172      -0.00074231      -0.00031013
W        7.55910459       8.31114602       8.24865639       0.00023572       0.00066431       0.00035519
5
Lattice="30.0 0.0 0.0 0.0 30.0 0.0 0.0 0.0 30.0" Properties=species:S:1:pos:R:3:forces:R:3 config_type=qcd dft_energy=-45.70990329 gap_energy=-45.53864891218282 relaxed_gap_energy=-45.591085369095296 energy=-45.591085369095296 free_energy=-45.591085369095296 pbc="T T T"
W       10.22731412       9.32144712       7.74694942       0.00007442       0.00006940       0.00001388
W       10.10676769       8.30164696       9.92777696       0.00019692      -0.00024108       0.00006758
W        9.47154855      10.49297288       9.71340326      -0.00006701       0.00011764      -0.00016148
W        8.04560237       8.71278877       7.99040786      -0.00007073       0.00006703       0.00010628
W        7.78339938       8.85777630      10.24874879      -0.00013361      -0.00001301      -0.00002626
5
Lattice="16.30262831551145 0.0 0.0 0.0 16.30262831551145 0.0 0.0 0.0 16.30262831551145" Properties=species:S:1:pos:R:3:forces:R:3 config_type=qcd dft_energy=-45.69077225 gap_energy=-45.481049510792445 relaxed_gap_energy=-45.547305582646814 energy=-45.547305582646814 free_energy=-45.547305582646814 pbc="T T T"
W       10.42592082       9.26884864      10.25897439       0.00031720       0.00014767       0.00004959
W        9.26047257       9.93348190       7.76644307       0.00011572      -0.00011386       0.00021748
W        9.95288106       7.86202609       8.49769243      -0.00009304      -0.00011616      -0.00018208
W        8.45074969      10.38932402       9.87394690      -0.00027048      -0.00000095      -0.00002957
W        7.91882834       8.17449414       9.53216351      -0.00006940       0.00008330      -0.00005542
6
Lattice="30.0 0.0 0.0 0.0 30.0 0.0 0.0 0.0 30.0" Properties=species:S:1:pos:R:3:forces:R:3 config_type=qcd dft_energy=-56.52094562 gap_energy=-56.73617498349472 relaxed_gap_energy=-56.846589138599796 energy=-56.846589138599796 free_energy=-56.846589138599796 pbc="T T T"
W        6.48831519       8.32214895       7.73285239       0.00009655       0.00007277       0.00008901
W        8.33546230       6.46379046       8.35732774      -0.00014129       0.00019868       0.00037650
W        8.59716128       8.20269593       6.66889792       0.00008433      -0.00026768      -0.00023067
W        7.67218090       8.32909869       9.78018348       0.00029919      -0.00029083      -0.00056972
W        8.48651824      10.05160427       8.25647488       0.00005599       0.00004535       0.00043646
W        9.99672710       8.20702670       8.78062859      -0.00039477       0.00024172      -0.00010159
7
Lattice="30.0 0.0 0.0 0.0 30.0 0.0 0.0 0.0 30.0" Properties=species:S:1:pos:R:3:forces:R:3 config_type=qcd dft_energy=-67.26783178 gap_energy=-67.41308147596399 relaxed_gap_energy=-67.75587046234887 energy=-67.75587046234887 free_energy=-67.75587046234887 pbc="T T T"
W        9.60206592       6.85502203       8.66000598      -0.00036020       0.00013459       0.00010790
W        9.80288694       9.34826507       8.52955504      -0.00001432       0.00013607       0.00012710
W        8.41242766       7.97496974      10.40855568       0.00019279       0.00007769       0.00049458
W        9.04510691       7.93745288       6.60978744      -0.00022154      -0.00013454      -0.00019987
W        7.11619256       7.65144971       8.37584692       0.00022018      -0.00059610      -0.00043919
W        7.50832467       9.69878514       7.12499988       0.00002696       0.00036155      -0.00003287
W        7.70384371      10.07584900       9.48792713       0.00015613       0.00002074      -0.00005765
7
Lattice="17.54003890788655 0.0 0.0 0.0 17.54003890788655 0.0 0.0 0.0 17.54003890788655" Properties=species:S:1:pos:R:3:forces:R:3 config_type=qcd dft_energy=-67.25577669 gap_energy=-67.39956556168544 relaxed_gap_energy=-67.46251805179585 energy=-67.46251805179585 free_energy=-67.46251805179585 pbc="T T T"
W        7.63136576       9.67638110       7.99877994      -0.00015127      -0.00007833      -0.00008115
W        9.41523535      11.10162592       8.58847727      -0.00015289       0.00009079      -0.00003889
W       10.42447388       9.04658973       8.02334052      -0.00013434      -0.00036138      -0.00011863
W        8.59222252       7.41644009       7.67417898       0.00019595       0.00018446       0.00020879
W        9.08539933       9.71221274      10.46514151       0.00008673      -0.00027856       0.00034859
W        7.42172997       7.99828355       9.80885023       0.00031779       0.00026988      -0.00030309
W        9.86340174       7.44770646       9.83020858      -0.00016197       0.00017313      -0.00001562
8
Lattice="15.36585 0.0 0.0 0.0 15.36585 0.0 0.0 0.0 15.36585" Properties=species:S:1:pos:R:3:forces:R:3 config_type=qcd dft_energy=-78.24110751 gap_energy=-77.7675818234419 relaxed_gap_energy=-77.96620474378305 energy=-77.96620474378305 free_energy=-77.96620474378305 pbc="T T T"
W        6.83467654       6.48180055       6.35713901       0.00057853       0.00003622      -0.00022261
W        6.10117688       6.58242397       8.64389484      -0.00067292      -0.00042497       0.00019818
W        9.18039979       6.14351752       6.37629346      -0.00021441       0.00050571       0.00005246
W        8.51636975       6.87900242       8.58543646       0.00026940      -0.00026434      -0.00025503
W        6.50381133       8.84439147       7.14417849      -0.00058254      -0.00019355       0.00014789
W        6.67452268       8.75001042       9.50826266       0.00013415       0.00061003      -0.00028804
W        8.83988254       8.48748515       6.29216244      -0.00008197      -0.00034301       0.00028011
W        8.81256048       9.29476849       8.55603265       0.00056977       0.00007390       0.00008703
9
Lattice="17.346263 0.0 0.0 0.0 17.346263 0.0 0.0 0.0 17.346263" Properties=species:S:1:pos:R:3:forces:R:3 config_type=qcd dft_energy=-88.91582094 gap_energy=-88.40702042658734 relaxed_gap_energy=-88.86782653651608 energy=-88.86782653651608 free_energy=-88.86782653651608 pbc="T T T"
W        7.48817628       7.98840753       6.34336784      -0.00051720       0.00004865       0.00002935
W        9.85824740       7.98879082       6.34330716       0.00053032       0.00000306       0.00010901
W        8.67291624      10.04140604       6.34336210      -0.00004131       0.00030765      -0.00051158
W        7.41398417       9.39979984       8.67305424      -0.00016404      -0.00017166       0.00000496
W        9.93206023       9.40017724       8.67303828       0.00020709      -0.00018301       0.00000129
W        8.67336837       7.21936393       8.67330174       0.00001605      -0.00036868      -0.00000226
W        7.48820648       7.98895213      11.00307050      -0.00051726       0.00004884      -0.00003057
W        9.85827773       7.98933558      11.00310087       0.00052844       0.00000337      -0.00011173
W        8.67294659      10.04195041      11.00258077      -0.00004210       0.00031178       0.00051153
10
Lattice="17.662259 0.0 0.0 0.0 17.662259 0.0 0.0 0.0 17.662259" Properties=species:S:1:pos:R:3:forces:R:3 config_type=qcd dft_energy=-99.41858779 gap_energy=-99.27459779447199 relaxed_gap_energy=-99.48025345426856 energy=-99.48025345426856 free_energy=-99.48025345426856 pbc="T T T"
W        6.28853821       9.21933707       7.55383129      -0.00071337      -0.00000738       0.00030597
W        8.26918564       7.91894147       7.18839780       0.00040987       0.00028105      -0.00028670
W        7.10106560       8.46808875       9.68062898       0.00066925      -0.00007544      -0.00004480
W        8.18838988      10.55440680       8.15024625       0.00040496       0.00030163      -0.00016874
W       10.15007681       9.50391126       7.09857982      -0.00030537      -0.00026759       0.00005229
W        8.52207968      10.26915236      10.57199809      -0.00035618      -0.00008693       0.00001351
W       10.76495689       7.62685378       8.56322697       0.00001123      -0.00031555       0.00007117
W        8.63463671       6.59617294       9.23150179      -0.00003911      -0.00033036      -0.00024213
W        9.70101523       8.12696567      10.83341023      -0.00028164       0.00026151       0.00040103
W       10.69135034      10.02746489       9.43947378       0.00020036       0.00023908      -0.00010160
10
Lattice="19.13106369187679 0.0 0.0 0.0 19.13106369187679 0.0 0.0 0.0 19.13106369187679" Properties=species:S:1:pos:R:3:forces:R:3 config_type=qcd dft_energy=-99.39466398 gap_energy=-99.24502769019206 relaxed_gap_energy=-99.63717661145506 energy=-99.63717661145506 free_energy=-99.63717661145506 pbc="T T T"
W       10.94513879       8.39342383       8.91162044       0.00059182       0.00018511       0.00032469
W        8.89950243       8.24299144      10.42335734       0.00008241       0.00041807       0.00035714
W        8.49015055       6.86443248       8.55354125      -0.00026443       0.00006019      -0.00054551
W       10.43443974       7.28751141       6.84956403      -0.00005105      -0.00071528      -0.00031252
W       10.34452176       9.65000148       6.96305512       0.00001185       0.00016373      -0.00009764
W        7.92881877       8.38696568       6.66003063       0.00002350      -0.00004268      -0.00020127
W        5.93701005       7.06121177       8.00110773      -0.00007111      -0.00062250      -0.00058289
W        8.38015245       9.75940287       8.69259147       0.00000342       0.00039653       0.00022780
W        6.37572518       8.16373086      10.08141204      -0.00035021      -0.00004961       0.00065703
W        5.84731589       9.42373258       8.11417653       0.00002379       0.00020644       0.00017316
11
Lattice="16.688192 0.0 0.0 0.0 16.688192 0.0 0.0 0.0 16.688192" Properties=species:S:1:pos:R:3:forces:R:3 config_type=qcd dft_energy=-110.34201531 gap_energy=-109.45855951034892 relaxed_gap_energy=-110.36199554572528 energy=-110.36199554572528 free_energy=-110.36199554572528 pbc="T T T"
W        6.84365225       7.31693994       7.19193204      -0.00042268      -0.00015629      -0.00037677
W        7.81976449      10.10167230       9.47099678      -0.00005613      -0.00000945       0.00014924
W        9.24931914       6.72539359       6.04162151       0.00003594      -0.00049806       0.00026619
W        8.04723111       7.55870574       9.43072236      -0.00016257      -0.00012855       0.00051094
W        8.64096835       9.12946896       7.25745227       0.00005522       0.00046257      -0.00027383
W       10.02304562       9.03060587      10.67880264       0.00017155       0.00018801      -0.00010115
W        8.77745249       5.47645394       7.76952434       0.00004028       0.00004137      -0.00038739
W        5.99569282       9.90066253       7.44781304      -0.00004798       0.00010418       0.00022601
W       10.36887457       7.61368765       8.36934641       0.00055871      -0.00013366       0.00005828
W        5.52373945       8.65207018       9.17591326      -0.00008252       0.00005896      -0.00016593
W       10.49531568      10.27939530       8.95093136      -0.00008982       0.00007090       0.00009440
12
Lattice="18.55183278699042 0.0 0.0 0.0 18.55183278699042 0.0 0.0 0.0 18.55183278699042" Properties=species:S:1:pos:R:3:forces:R:3 config_type=qcd dft_energy=-121.19166323 gap_energy=-120.87706031097389 relaxed_gap_energy=-121.6330290930947 energy=-121.6330290930947 free_energy=-121.6330290930947 pbc="T T T"
W        7.21327764       7.80715585      10.14358038       0.00044765      -0.00038454      -0.00021964
W        9.37318812       7.88707402       8.41942082       0.00000974       0.00079315      -0.00006538
W        7.05045374       8.89253274       8.00725988       0.00031342       0.00026563       0.00015996
W       11.03276423       9.34900952       7.12140230       0.00027209      -0.00021948       0.00008152
W       11.62947692      11.04509400       8.71390152       0.00070215      -0.00020853      -0.00009145
W        9.46988279      10.96497377      10.43787821      -0.00038656      -0.00055405      -0.00051978
W        7.81010745       9.50346853      11.73574546      -0.00027925       0.00036218       0.00004548
W       11.79250946       9.95901599      10.85003875      -0.00031044       0.00049171      -0.00039496
W        8.98495869      10.57529772       8.05837938      -0.00013263       0.00080255      -0.00033709
W        6.82534502      10.49497016       9.78222010      -0.00040024      -0.00041345       0.00058616
W       12.01770178       8.35726263       9.07466670      -0.00048681      -0.00053645      -0.00006604
W        9.85784207       8.27667748      10.79877357       0.00025088      -0.00039873       0.00082122
13
Lattice="18.147849 0.0 0.0 0.0 18.147849 0.0 0.0 0.0 18.147849" Properties=species:S:1:pos:R:3:forces:R:3 config_type=qcd dft_energy=-132.39977578 gap_energy=-131.65646287711505 relaxed_gap_energy=-132.42277653960167 energy=-132.42277653960167 free_energy=-132.42277653960167 pbc="T T T"
W        7.87011884      11.72912446       8.59961867      -0.00018515       0.00017138      -0.00032939
W        6.87358424       9.36446328       9.02897906       0.00002374      -0.00096970       0.00014498
W        7.04641348       6.75008128       9.12198371      -0.00074363       0.00022558       0.00058949
W        7.69010576       9.94621597       6.68770625       0.00068649       0.00043938       0.00015990
W        9.11873165       8.25989026       8.03071457      -0.00021008       0.00004874      -0.00033839
W        9.33625078       6.88449353      10.38747491      -0.00008305       0.00074226      -0.00044827
W       10.02711030      11.79577385       9.30383518      -0.00072887      -0.00005839      -0.00038908
W        9.06286334       9.60631897      10.28610464       0.00015115       0.00035589       0.00009492
W        7.05074718       7.74423840      11.14045955       0.00061982      -0.00048971      -0.00037763
W        9.73998651      10.90683010       6.85558687       0.00011941       0.00039612      -0.00000490
W       11.17293441       9.62911160       8.61147707       0.00015614      -0.00058861       0.00078727
W       11.46930284       8.32746803      10.86789359       0.00075598      -0.00027259      -0.00055552
W       11.50286917       7.01700876       9.03918442      -0.00056194      -0.00000035       0.00066662
14
Lattice="22.76272353551731 0.0 0.0 0.0 22.76272353551731 0.0 0.0 0.0 22.76272353551731" Properties=species:S:1:pos:R:3:forces:R:3 config_type=qcd dft_energy=-143.11132033 gap_energy=-142.84415126106117 relaxed_gap_energy=-143.68522134003118 energy=-143.68522134003118 free_energy=-143.68522134003118 pbc="T T T"
W        8.00240968       9.77083181       7.02889988      -0.00019133      -0.00052563       0.00004839
W       10.03985605      10.14289878       8.92061353      -0.00000277      -0.00002362       0.00013409
W        8.62794022       9.22423526      11.11140323      -0.00004161       0.00030151       0.00071901
W        5.62247336       8.91486727       6.81505255      -0.00023599      -0.00026440       0.00030822
W       10.64990468       8.25699170      10.15233011      -0.00005094       0.00033153      -0.00038755
W        8.57386922       6.71171374      10.11535511       0.00014539      -0.00035412       0.00066293
W        9.37703370       7.67278835       7.83907694      -0.00018823      -0.00015212      -0.00046067
W        8.94611726       8.11049606       5.19973398       0.00005066       0.00005727       0.00009054
W        6.83141918       8.81590195       4.78219441       0.00023251       0.00049862      -0.00008612
W        7.69753008      10.66953168       9.52627176       0.00049010       0.00011892      -0.00040264
W        6.54324892       5.48501136       8.80839402      -0.00027354      -0.00024718      -0.00030613
W        6.94464814       8.24063401       8.98700464      -0.00027600       0.00034303      -0.00039636
W        7.11387540       6.84417497       6.59036984       0.00033572      -0.00023999       0.00032631
W        8.56661856       5.07281644       8.02275808       0.00000603       0.00015620      -0.00024999
15
Lattice="18.843587 0.0 0.0 0.0 18.843587 0.0 0.0 0.0 18.843587" Properties=species:S:1:pos:R:3:forces:R:3 config_type=qcd dft_energy=-153.7817849 gap_energy=-153.8151222087013 relaxed_gap_energy=-154.3849686226369 energy=-154.3849686226369 free_energy=-154.3849686226369 pbc="T T T"
W       11.58719815       7.07294099      10.05858223      -0.00006797      -0.00065991       0.00034611
W       10.31708188       9.34067326       9.48183472       0.00003394       0.00013946      -0.00003775
W        9.78452845       6.38773848       8.96664092      -0.00007890      -0.00000286       0.00004961
W        7.77465617      11.91125904      10.80397433       0.00002353       0.00006752       0.00067119
W        8.13692583      10.55025328       8.30455760       0.00056205      -0.00047809      -0.00016143
W       10.31583199      10.57367101       6.69815489      -0.00045886      -0.00015551      -0.00015099
W        9.32454737       8.19373047       7.13317979       0.00016327       0.00055328      -0.00014834
W        7.83240231       8.15165589       9.60448999       0.00089396      -0.00011114      -0.00033772
W        6.30812528      10.14664189      10.03011516      -0.00057799       0.00023750       0.00016251
W       11.58963384       8.15995831       7.60089159      -0.00047761      -0.00043450      -0.00002374
W        7.47803562       9.57316846      12.07133189      -0.00018365       0.00019264      -0.00035259
W       12.05610094      10.76674940       8.05660801      -0.00020022       0.00056294       0.00025547
W        9.35180545       7.94927620      11.38188988       0.00043972       0.00008936       0.00024939
W        9.62519340      10.71595188      11.85757131      -0.00028961      -0.00005979      -0.00024553
W        9.84483583      11.83323391       9.27708016       0.00021833       0.00005911      -0.00027618
16
Lattice="21.57256049728962 0.0 0.0 0.0 21.57256049728962 0.0 0.0 0.0 21.57256049728962" Properties=species:S:1:pos:R:3:forces:R:3 config_type=qcd dft_energy=-164.88769585 gap_energy=-164.2015324121516 relaxed_gap_energy=-165.28721647287801 energy=-165.28721647287801 free_energy=-165.28721647287801 pbc="T T T"
W       11.33751323       9.76049797       7.32234135      -0.00020577      -0.00001896       0.00020195
W       11.90853742      12.13139741      13.73625479      -0.00018002      -0.00001941      -0.00014547
W       13.12144585      10.58575828      12.22841660       0.00066454      -0.00040124       0.00019065
W       11.18309472       9.44924124      13.48054641       0.00000955      -0.00009091       0.00024058
W       10.58424104      13.45012622      12.12269557       0.00002565      -0.00018948      -0.00004771
W       12.18284035       9.42098356       9.81942363      -0.00030345      -0.00010664      -0.00054490
W        8.47021656      10.86715896       9.77287685       0.00007556       0.00017049       0.00014784
W        9.68504991       8.99328441       9.14083864       0.00027666      -0.00008542       0.00003364
W        8.64841739       9.18178050      11.87214917       0.00010333       0.00040913       0.00005792
W       10.20973418      12.86177170       9.46892721       0.00023206       0.00001090      -0.00024441
W       12.15969586      11.74940572       8.79794636       0.00013642       0.00000742       0.00020518
W       10.54367098       7.97048989      11.44578424       0.00032036      -0.00021272       0.00021682
W        9.50580024      11.05388365      13.49491049       0.00001652      -0.00004634      -0.00048446
W       12.64790335      12.92047251      11.24318906      -0.00042222       0.00029649       0.00030467
W        9.68125210      11.29407066       7.47342667      -0.00021639       0.00005412      -0.00026773
W       10.71107078      10.89016131      11.16075695      -0.00053279       0.00022257       0.00013542
16
Lattice="27.7443520419937 0.0 0.0 0.0 27.7443520419937 0.0 0.0 0.0 27.7443520419937" Properties=species:S:1:pos:R:3:forces:R:3 config_type=qcd dft_energy=-164.88103272 gap_energy=-164.5348423961767 relaxed_gap_energy=-164.9735962342972 energy=-164.9735962342972 free_energy=-164.9735962342972 pbc="T T T"
W       14.50285995      13.87211060      13.87217602      -0.00073073       0.00000039      -0.00000000
W       14.14225020      13.87214792      16.90262977       0.00065315       0.00000061       0.00044383
W       14.88622447      11.62270369      15.25213512      -0.00000312      -0.00002240      -0.00018883
W       12.51963530      12.47724303      15.22267956      -0.00033097      -0.00033731      -0.00033582
W       12.51992463      15.26738914      15.22267939      -0.00033156       0.00033752      -0.00033549
W       14.88669087      16.12143825      15.25213513      -0.00000389       0.00002243      -0.00018894
W       16.15032149      13.87194036      15.97163403      -0.00007429      -0.00000124       0.00050129
W       13.19617803      10.38217313      13.87217603      -0.00001457      -0.00053859       0.00000000
W       10.84878273      13.87248882      13.87217603       0.00094152       0.00000033       0.00000000
W       13.19690179      17.36231906      13.87217602      -0.00001487       0.00053868      -0.00000000
W       16.15032148      13.87194035      11.77271800      -0.00007429      -0.00000125      -0.00050129
W       14.88669086      16.12143825      12.49221690      -0.00000390       0.00002243       0.00018894
W       12.51992462      15.26738913      12.52167266      -0.00033156       0.00033752       0.00033549
W       12.51963529      12.47724303      12.52167249      -0.00033096      -0.00033731       0.00033582
W       14.88622446      11.62270368      12.49221692      -0.00000312      -0.00002240       0.00018883
W       14.14225018      13.87214791      10.84172227       0.00065315       0.00000061      -0.00044383
17
Lattice="27.745927348615 0.0 0.0 0.0 27.745927348615 0.0 0.0 0.0 27.745927348615" Properties=species:S:1:pos:R:3:forces:R:3 config_type=qcd dft_energy=-176.0094573 gap_energy=-174.8730749994477 relaxed_gap_energy=-175.60442754112216 energy=-175.60442754112216 free_energy=-175.60442754112216 pbc="T T T"
W       14.14774284      14.07272471      13.87294085      -0.00043249      -0.00031555      -0.00004313
W       14.38192624      14.24254697      16.70242982       0.00035077       0.00022764      -0.00048477
W       14.81229405      11.73961436      15.21778357      -0.00013812      -0.00050808      -0.00002022
W       12.21941789      12.67092284      15.20059306       0.00000482       0.00000198       0.00011106
W       12.13343514      15.42462700      15.21779682      -0.00053923       0.00003158      -0.00002076
W       14.61369853      16.17589915      15.32776383      -0.00036193       0.00038569      -0.00028937
W       16.29213903      13.86738330      15.32789738       0.00026542      -0.00046668      -0.00029515
W       16.81599699      11.59750950      13.87315278       0.00035315      -0.00009182      -0.00007294
W       12.84971262      10.66463873      13.87296938       0.00087486      -0.00032418       0.00001635
W       10.50543245      13.88936117      13.87296642      -0.00001713       0.00098074       0.00001561
W       12.61621657      17.37451089      13.87312630      -0.00000988       0.00032584      -0.00008594
W       16.29194900      13.86724122      12.41787439       0.00034422      -0.00042430       0.00035505
W       14.61352584      16.17577532      12.41799149      -0.00028848       0.00045544       0.00034130
W       12.13339154      15.42466801      12.52820110      -0.00054985      -0.00001739       0.00000637
W       12.21947157      12.67095552      12.54532692      -0.00001145      -0.00001203      -0.00004601
W       14.81233377      11.73956903      12.52822935      -0.00018101      -0.00049765       0.00001146
W       14.38169843      14.24243474      11.04333898       0.00033632       0.00024876       0.00050108
18
Lattice="27.7478180416046 0.0 0.0 0.0 27.7478180416046 0.0 0.0 0.0 27.7478180416046" Properties=species:S:1:pos:R:3:forces:R:3 config_type=qcd dft_energy=-187.62593865 gap_energy=-186.24817634198345 relaxed_gap_energy=-187.47729242522195 energy=-187.47729242522195 free_energy=-187.47729242522195 pbc="T T T"
W       13.70121042      13.73845943      13.87390932      -0.00015792      -0.00018109      -0.00000023
W       13.52565365      13.60974856      16.57835939      -0.00001118       0.00017067      -0.00000237
W       14.76743347      11.63096660      15.32640260      -0.00014808      -0.00029322      -0.00013734
W       11.87244172      12.43090181      15.45783075      -0.00006675       0.00012648       0.00009855
W       12.05436001      15.39871158      15.32130891       0.00026662      -0.00009381      -0.00015835
W       14.62614125      16.10422122      15.19063464       0.00008255      -0.00023869       0.00022325
W       16.22053710      13.87424324      15.09880617       0.00002446       0.00043997       0.00002224
W       16.76197718      11.63394054      13.87390600      -0.00036987      -0.00008923       0.00000535
W       12.95267925      10.79225328      13.87390982       0.00024838      -0.00022016       0.00000578
W       10.66210376      13.98723107      13.87391266      -0.00008892      -0.00009894      -0.00000876
W       12.84580584      17.30997189      13.87390543       0.00001467      -0.00007253       0.00000415
W       16.67345223      16.17094035      13.87390932       0.00008361       0.00039796      -0.00000619
W       16.22053929      13.87424229      12.64901102       0.00001351       0.00044010      -0.00002592
W       14.62613973      16.10421662      12.55718057       0.00008527      -0.00022526      -0.00022235
W       12.05435753      15.39870910      12.42651291       0.00026868      -0.00008862       0.00014241
W       11.87243970      12.43090111      12.28999149      -0.00006250       0.00012208      -0.00010022
W       14.76743321      11.63096525      12.42141149      -0.00015253      -0.00029506       0.00015618
W       13.52565707      13.60973842      11.16945988      -0.00003000       0.00019935       0.00000379
19
Lattice="27.74235754927951 0.0 0.0 0.0 27.74235754927951 0.0 0.0 0.0 27.74235754927951" Properties=species:S:1:pos:R:3:forces:R:3 config_type=qcd dft_energy=-197.80651561 gap_energy=-196.6639008095346 relaxed_gap_energy=-198.32322914450646 energy=-198.32322914450646 free_energy=-198.32322914450646 pbc="T T T"
W       14.17140228      13.49315328      13.87117878      -0.00008508      -0.00081161       0.00000001
W       14.15222773      13.26543059      16.58501678      -0.00019866      -0.00022599      -0.00039668
W       14.85849404      11.33049334      15.41669102      -0.00039959       0.00078028       0.00029877
W       12.19036271      12.48332427      15.30572363       0.00017432       0.00017497      -0.00014133
W       12.18703764      15.10623747      15.27900008       0.00010110       0.00013476       0.00018826
W       14.76320918      15.90782521      15.09682770      -0.00010812      -0.00024224      -0.00007104
W       16.46444753      13.88669115      15.32332171       0.00065547      -0.00021890      -0.00024050
W       16.76441588      11.90547294      13.87117867       0.00005851       0.00016931      -0.00000002
W       13.07512630      10.60134483      13.87117878       0.00019082      -0.00035022       0.00000000
W       10.32883738      14.08140607      13.87117904       0.00012752       0.00019475       0.00000005
W       10.38724710      16.46344392      13.87117820      -0.00043545      -0.00003168      -0.00000013
W       12.53700621      17.26572574      13.87117898       0.00007842      -0.00011416       0.00000006
W       17.05680411      15.78184570      13.87117879      -0.00038380       0.00013783       0.00000000
W       16.46444744      13.88669118      12.41903575       0.00065545      -0.00021889       0.00024047
W       14.76320907      15.90782526      12.64552993      -0.00010814      -0.00024224       0.00007105
W       12.18703758      15.10623751      12.46335756       0.00010110       0.00013476      -0.00018824
W       12.19036268      12.48332437      12.43663413       0.00017433       0.00017500       0.00014138
W       14.85849400      11.33049332      12.32566644      -0.00039960       0.00078028      -0.00029879
W       14.15222785      13.26543059      11.15734078      -0.00019860      -0.00022600       0.00039668
19