3
Lattice="30.0 0.0 0.0 0.0 30.0 0.0 0.0 0.0 30.0" Properties=species:S:1:pos:R:3:forces:R:3 config_type=qcd dft_energy=-10.92987197 gap_energy=-11.275292377630025 relaxed_gap_energy=-11.275586564199292 energy=-11.275586564199292 free_energy=-11.275586564199292 pbc="T T T"
Y       10.38532894      11.85442479      11.38108727      -0.00000463       0.00010887       0.00007439
Y       11.76189740       9.60585660       9.64711109       0.00015948      -0.00006197      -0.00006653
Y        8.63905123       9.56049011      10.09807694      -0.00015485      -0.00004690      -0.00000786
4
Lattice="30.0 0.0 0.0 0.0 30.0 0.0 0.0 0.0 30.0" Properties=species:S:1:pos:R:3:forces:R:3 config_type=qcd dft_energy=-16.35989096 gap_energy=-16.732084582855578 relaxed_gap_energy=-16.754721083527357 energy=-16.754721083527357 free_energy=-16.754721083527357 pbc="T T T"
Y        6.75061630       8.64165548       9.27942417       0.00017757      -0.00008507      -0.00021919
Y        8.84297979       9.30609703       6.95928692      -0.00009150      -0.00000568       0.00010839
Y        6.75000865       6.92212926       6.58766356       0.00002216       0.00003621       0.00011420
Y        9.15340726       6.62713022       8.67063735      -0.00010824       0.00005453      -0.00000341
5
Lattice="16.224627 0.0 0.0 0.0 16.224627 0.0 0.0 0.0 16.224627" Properties=species:S:1:pos:R:3:forces:R:3 config_type=qcd dft_energy=-21.55629468 gap_energy=-21.622939414143275 relaxed_gap_energy=-21.65477329382919 energy=-21.65477329382919 free_energy=-21.65477329382919 pbc="T T T"
Y        6.96138792       7.55479158       6.75591052       0.00008602       0.00059482      -0.00020166
Y        7.50585125       9.28988348       9.42412541       0.00001287       0.00031227      -0.00042764
Y        9.86960202       7.49204656       8.15707000       0.00047630       0.00030865      -0.00028696
Y        8.87837094      10.17496767       6.61474213      -0.00026311      -0.00053976       0.00036742
Y        7.34635537       6.04987821       9.60971944      -0.00031208      -0.00067598       0.00054884
6
Lattice="15.800679 0.0 0.0 0.0 15.800679 0.0 0.0 0.0 15.800679" Properties=species:S:1:pos:R:3:forces:R:3 config_type=qcd dft_energy=-26.88534727 gap_energy=-26.607614923978232 relaxed_gap_energy=-26.61956394069412 energy=-26.61956394069412 free_energy=-26.61956394069412 pbc="T T T"
Y        6.35655807       9.59886088       7.87960763      -0.00010824      -0.00014823       0.00016126
Y        6.91610811       6.98307704       6.03546207       0.00031436       0.00018707       0.00033204
Y        6.51492973       6.65729665       9.24288982      -0.00024555       0.00016482       0.00002363
Y        9.28577820       9.14341873       6.55781049       0.00008074      -0.00030186      -0.00010798
Y        9.44410796       6.20182564       7.92110672       0.00013671       0.00007704      -0.00034069
Y        8.88455492       8.81755805       9.76516027      -0.00017803       0.00002115      -0.00006825
7
Lattice="30.0 0.0 0.0 0.0 30.0 0.0 0.0 0.0 30.0" Properties=species:S:1:pos:R:3:forces:R:3 config_type=qcd dft_energy=-32.4625662 gap_energy=-32.092878904166845 relaxed_gap_energy=-32.116016574937724 energy=-32.116016574937724 free_energy=-32.116016574937724 pbc="T T T"
Y        9.20005718       8.30355285       8.82196232      -0.00031375       0.00004016      -0.00008660
Y       12.13364122       8.12777505      10.49304346       0.00032141       0.00004375       0.00001228
Y       11.11970906      10.94518191       9.14927748      -0.00015787       0.00010594       0.00023047
Y        9.60410232       9.83911127      11.69426745      -0.00084117      -0.00008913      -0.00014550
Y       12.61860732      11.08118960      12.06578202       0.00055901       0.00022047       0.00001083
Y        9.98478023      13.08235981      11.36647889      -0.00008626      -0.00024266      -0.00025652
Y        7.87159306      11.36544424       9.36174823       0.00051864      -0.00007853       0.00023505
8
Lattice="17.701531 0.0 0.0 0.0 17.701531 0.0 0.0 0.0 17.701531" Properties=species:S:1:pos:R:3:forces:R:3 config_type=qcd dft_energy=-37.67871633 gap_energy=-37.231233865427086 relaxed_gap_energy=-37.25076727591359 energy=-37.25076727591359 free_energy=-37.25076727591359 pbc="T T T"
Y       10.20574261      10.31890558      10.28551460       0.00032950       0.00013993       0.00033915
Y       10.68060140       6.85912339      10.61286460      -0.00058959      -0.00007604      -0.00061982
Y        7.12211529       8.81408578       7.10141177      -0.00041764      -0.00013297      -0.00042643
Y        8.35681966       5.72515868       8.21336054       0.00048529       0.00027515       0.00049370
Y        9.34225229      11.37410716       7.18225627       0.00017793      -0.00049823       0.00007744
Y       10.24528440       8.27370876       7.77294770       0.00025354       0.00039462      -0.00028801
Y        7.06774409      11.27475189       9.43194520       0.00008806      -0.00047025       0.00015401
Y        7.78556428       8.16628276      10.20582332      -0.00032710       0.00036780       0.00026996
9
Lattice="30.0 0.0 0.0 0.0 30.0 0.0 0.0 0.0 30.0" Properties=species:S:1:pos:R:3:forces:R:3 config_type=qcd dft_energy=-42.84265516 gap_energy=-42.5017018539112 relaxed_gap_energy=-42.5657163297696 energy=-42.5657163297696 free_energy=-42.5657163297696 pbc="T T T"
Y       12.26939275      12.76077772       9.82516212       0.00031002      -0.00014063       0.00035767
Y       10.18425894      14.25462304      12.06028623       0.00046905       0.00003295       0.00004105
Y       11.61855012       9.11746969      12.74354634      -0.00061577       0.00059268      -0.00022854
Y       13.81066413      14.49599365      11.99244349      -0.00032456       0.00056575      -0.00023209
Y        9.78108665      11.08283884      10.89849590       0.00029482      -0.00054218       0.00046752
Y       12.33505207       9.42552149       9.49581251      -0.00009663      -0.00033137      -0.00035259
Y       12.12134049      12.18512731      13.31448320       0.00034411      -0.00073904       0.00021106
Y       14.45283705      11.02867509      11.52073450      -0.00062650       0.00049960       0.00014153
Y        9.15649615      11.35850759      13.99978382       0.00024547       0.00006225      -0.00040561
10
Lattice="30.0 0.0 0.0 0.0 30.0 0.0 0.0 0.0 30.0" Properties=species:S:1:pos:R:3:forces:R:3 config_type=qcd dft_energy=-48.19778048 gap_energy=-47.84482813498114 relaxed_gap_energy=-47.87688564256414 energy=-47.87688564256414 free_energy=-47.87688564256414 pbc="T T T"
Y       11.87521004       8.38510176       9.72698545      -0.00022962       0.00028873       0.00041896
Y        9.42250091       6.18716193       9.04816557       0.00031945      -0.00039502      -0.00023303
Y        9.61427300       9.15670121       7.48208720       0.00062060       0.00019855      -0.00025420
Y        9.67022347       7.74394161      11.99076586       0.00015031       0.00043959      -0.00044698
Y       11.95372756      10.71655765      12.13136290      -0.00016762      -0.00034163      -0.00019022
Y        7.16088481       8.60074085       9.49842603      -0.00059413       0.00029391       0.00069613
Y       11.51375948      11.60005959       8.80227146       0.00020469      -0.00000874       0.00021953
Y        8.10375284      12.02991797       8.30915813      -0.00008604       0.00034108       0.00035182
Y       10.13151270      13.57587585      10.87536451      -0.00005581      -0.00018569      -0.00082992
Y        9.21023718      10.58718412      10.77463150      -0.00016184      -0.00063076       0.00026791
11
Lattice="19.25515544397101 0.0 0.0 0.0 19.25515544397101 0.0 0.0 0.0 19.25515544397101" Properties=species:S:1:pos:R:3:forces:R:3 config_type=qcd dft_energy=-53.93487142 gap_energy=-53.546262566460584 relaxed_gap_energy=-53.7017602670585 energy=-53.7017602670585 free_energy=-53.7017602670585 pbc="T T T"
Y       11.35552282       6.72868908      11.04970957      -0.00019779       0.00015419       0.00029217
Y        8.87500197       6.94444420       8.89496003       0.00037581      -0.00028275       0.00004825
Y       11.91701564       8.59533915       8.28084382       0.00042518      -0.00017286      -0.00022414
Y        8.80966365       9.43261397       6.57874831       0.00043425       0.00029027      -0.00004327
Y        8.63427470       8.48332046      12.04340272      -0.00046475       0.00018484       0.00037493
Y        6.50408846       9.36328511       9.22444792      -0.00006762      -0.00032285      -0.00004535
Y        9.47641145       9.88082701       9.50347063       0.00019081       0.00070958       0.00006449
Y       11.77737683       9.96084418      11.51699363      -0.00002926      -0.00063472      -0.00031283
Y        8.03539485      12.30885568       8.30549564      -0.00070829       0.00052390       0.00018040
Y       11.41641960      12.14172611       8.93369924      -0.00019400      -0.00033890      -0.00046012
Y        9.10218498      12.06340999      11.57158346       0.00023566      -0.00011070       0.00012547
12
Lattice="21.41336179586788 0.0 0.0 0.0 21.41336179586788 0.0 0.0 0.0 21.41336179586788" Properties=species:S:1:pos:R:3:forces:R:3 config_type=qcd dft_energy=-59.38288656 gap_energy=-58.96460500084068 relaxed_gap_energy=-59.153580332731934 energy=-59.153580332731934 free_energy=-59.153580332731934 pbc="T T T"
Y       11.25313987      10.94071892      10.21067188      -0.00011819      -0.00046565      -0.00035661
Y       11.89182712       9.26113036      13.15841215       0.00007518       0.00010651      -0.00005175
Y       13.72278102      11.82193378      12.00702656      -0.00030639      -0.00002944      -0.00003013
Y       13.48726767       8.68044945      10.26842943      -0.00003730       0.00013997       0.00013144
Y       10.32433232       7.64734970      10.67282115      -0.00006005       0.00012509       0.00004436
Y       10.67898247      12.38369143      13.29349989       0.00008531       0.00002633      -0.00012956
Y        8.36179751      12.69989526      10.89141571       0.00013803      -0.00003666      -0.00004152
Y       11.38112493      14.10302337      10.50304892      -0.00013461      -0.00019299       0.00021059
Y        8.53733844       9.77859417      12.67697598       0.00013411       0.00016600      -0.00000489
Y       11.00039638       9.01989348       7.69066730       0.00010191       0.00000425      -0.00007060
Y        9.69866472      12.37082384       7.83540150       0.00004279       0.00007968       0.00024958
Y        8.14251835       9.77266703       9.27180033       0.00007922       0.00007688       0.00004908
12
Lattice="21.24054139760361 0.0 0.0 0.0 21.24054139760361 0.0 0.0 0.0 21.24054139760361" Properties=species:S:1:pos:R:3:forces:R:3 config_type=qcd dft_energy=-59.38230319 gap_energy=-57.72140512818987 relaxed_gap_energy=-59.15357971202408 energy=-59.15357971202408 free_energy=-59.15357971202408 pbc="T T T"
Y       13.16649672      11.39250069      12.17758063       0.00007412       0.00034208      -0.00009796
Y        7.57840539       9.82212389       9.15790544      -0.00012271      -0.00005659      -0.00024267
Y        8.43949302      13.22803334       9.93298140      -0.00011529       0.00035611       0.00016605
Y        9.05852599       7.70342346      11.66093459       0.00043735      -0.00005396      -0.00012057
Y       10.48909503       8.23174960       8.67572303      -0.00000657      -0.00057967       0.00048649
Y       11.78710981      13.36648621       9.84490099       0.00024975      -0.00017421       0.00000834
Y       12.36422190       8.21886678      11.45498808      -0.00011414      -0.00044866      -0.00036987
Y       13.15948529      10.36870080       8.90587498      -0.00018125       0.00015827      -0.00008865
Y       10.83511478       9.79981290      13.98380808      -0.00048599       0.00067827      -0.00016590
Y       10.45207795      13.21515104      12.91557843       0.00000798      -0.00024080       0.00033766
Y        9.98081950      10.68364061      11.05247948       0.00023352      -0.00021662      -0.00016096
Y       10.13240299      11.41275909       7.68049325       0.00002323       0.00023580       0.00024805
12
Lattice="21.78036885366163 0.0 0.0 0.0 21.78036885366163 0.0 0.0 0.0 21.78036885366163" Properties=species:S:1:pos:R:3:forces:R:3 config_type=qcd dft_energy=-59.36775763 gap_energy=-59.12858179025923 relaxed_gap_energy=-59.22109907877591 energy=-59.22109907877591 free_energy=-59.22109907877591 pbc="T T T"
Y        9.17700039       9.14785382       9.35926249      -0.00027686       0.00039984      -0.00014419
Y       11.82623926       7.27945272       9.98533295       0.00050343      -0.00008582       0.00006429
Y        8.40908835      12.38358281       9.15459079      -0.00007842      -0.00078301       0.00016790
Y       11.48379568      13.31490476       8.61781996       0.00056040       0.00026446      -0.00019268
Y       10.11730704       8.45459148      12.56153065      -0.00057086      -0.00001021       0.00027925
Y       12.69472285      10.21372325       8.74518161      -0.00038223       0.00019378      -0.00024160
Y        8.03994004      11.10426634      12.23389461       0.00041143       0.00010224       0.00020138
Y       13.33037715       9.42835190      12.00034753       0.00034607      -0.00030064       0.00037172
Y       13.42061112      12.73554179      11.29561026       0.00019344       0.00009804      -0.00039905
Y       10.83377876      11.14928608      11.01804687      -0.00010992       0.00055975       0.00007822
Y       11.24909979      11.49497217      13.98892165      -0.00047556      -0.00036951      -0.00040533
Y       10.10025270      13.97568599      11.72167375      -0.00012092      -0.00006892       0.00022009
13
Lattice="17.613187 0.0 0.0 0.0 17.613187 0.0 0.0 0.0 17.613187" Properties=species:S:1:pos:R:3:forces:R:3 config_type=qcd dft_energy=-65.49639082 gap_energy=-65.31501477458968 relaxed_gap_energy=-65.38288272754782 energy=-65.38288272754782 free_energy=-65.38288272754782 pbc="T T T"
Y        8.70061419       8.64167510       8.84000597       0.00012586      -0.00021009       0.00093611
Y        8.82365361      10.54772560      11.57037853       0.00045786       0.00010435       0.00016272
Y        8.81854001       7.08656851      11.61967092      -0.00004692      -0.00059183       0.00024759
Y        8.83043304      10.55177881       6.03184215       0.00009164       0.00015324      -0.00028529
Y        8.82353209       7.10293395       6.00683329      -0.00023824       0.00011958       0.00027375
Y       10.54845139      11.62288338       8.79960701      -0.00012791      -0.00002627      -0.00004774
Y       10.55431984       6.02397307       8.80310295      -0.00031412       0.00043164      -0.00013637
Y        7.11625813      11.60640140       8.79934274      -0.00001638       0.00041238      -0.00033442
Y        7.05137569       5.96626095       8.80110224       0.00052205       0.00048557      -0.00033233
Y       11.59422297       8.83696912      10.51323732      -0.00028893       0.00000164      -0.00015803
Y       11.59695837       8.84032688       7.09107139       0.00027239      -0.00022243      -0.00030677
Y        6.00509830       8.82811943      10.53970560      -0.00053728      -0.00011557       0.00023518
Y        6.02225786       8.83009928       7.06981539       0.00009998      -0.00054222      -0.00025440
14
Lattice="19.824844 0.0 0.0 0.0 19.824844 0.0 0.0 0.0 19.824844" Properties=species:S:1:pos:R:3:forces:R:3 config_type=qcd dft_energy=-70.58666067 gap_energy=-70.268874058313 relaxed_gap_energy=-70.31311154181208 energy=-70.31311154181208 free_energy=-70.31311154181208 pbc="T T T"
Y        7.59264854       8.24509386       7.51945075      -0.00003896       0.00009333      -0.00049361
Y        6.91360410       9.09916349      10.76032249      -0.00010624       0.00022572       0.00015830
Y        9.23332962       8.35237949      13.24764867      -0.00009422      -0.00012941       0.00022931
Y       10.83223420       8.85872821       7.75882284      -0.00025770       0.00018558       0.00018016
Y       10.05141486       9.82974230      10.74325327       0.00047969       0.00064327      -0.00026539
Y       12.23215547       7.72441394      11.51795305      -0.00000682       0.00004233      -0.00016697
Y        9.15068478      10.36272845       5.36945947      -0.00005766      -0.00001202      -0.00006681
Y        8.38056975      11.32832543       8.41468364       0.00022893      -0.00030313       0.00011076
Y        8.30728583      11.67801778      12.56818781       0.00003247      -0.00000566      -0.00023775
Y       11.38690766      12.08001064       7.26263463      -0.00017183      -0.00021748       0.00014283
Y       10.74186038      12.96809033      10.50168958      -0.00016078      -0.00030139       0.00022008
Y       11.68212894      10.82733984      13.08216257       0.00011562       0.00016742      -0.00009880
Y       13.04859653      10.64453246       9.88452777      -0.00022033      -0.00022395       0.00023285
Y        9.22048732       6.77534180      10.14311145       0.00025783      -0.00016461       0.00005504
14
Lattice="21.04448182314266 0.0 0.0 0.0 21.04448182314266 0.0 0.0 0.0 21.04448182314266" Properties=species:S:1:pos:R:3:forces:R:3 config_type=qcd dft_energy=-70.56551189 gap_energy=-70.35919054251652 relaxed_gap_energy=-70.5179143650703 energy=-70.5179143650703 free_energy=-70.5179143650703 pbc="T T T"
Y       10.39646594      10.68258599      10.62132846       0.00024278       0.00091719      -0.00005504
Y       12.65925358       8.24141981      11.71467227       0.00074303      -0.00020329       0.00061883
Y        7.36992481      10.03971621      11.63213192      -0.00016659      -0.00078861      -0.00015548
Y       11.57672325      13.68386700      11.06351845       0.00033291       0.00013452      -0.00013396
Y       13.30519654      10.93185415       9.53736577      -0.00079446       0.00047485       0.00037124
Y       12.58533090      11.22742583      13.08814986      -0.00014054      -0.00049768       0.00018328
Y        7.93183922      10.49053956       8.37132575      -0.00004557       0.00033522      -0.00001485
Y        9.37497631      12.29398571      13.39193578       0.00001691       0.00009834      -0.00036601
Y        9.95395930       8.94759676      13.44373319       0.00016671       0.00018590       0.00023345
Y        9.60707385       7.72785798      10.03706714      -0.00093477       0.00003986       0.00030905
Y        8.18137186      13.20465443      10.39807545       0.00032275      -0.00011238       0.00016226
Y       10.56307545      12.77025808       8.01579933      -0.00029229      -0.00022834      -0.00007400
Y       10.91468896       9.57256156       7.33865262       0.00060405      -0.00029037      -0.00055270
Y       12.89149279       7.49704970       8.65761680      -0.00005491      -0.00006522      -0.00052608
15
Lattice="19.523729 0.0 0.0 0.0 19.523729 0.0 0.0 0.0 19.523729" Properties=species:S:1:pos:R:3:forces:R:3 config_type=qcd dft_energy=-76.09927058 gap_energy=-75.59990488927822 relaxed_gap_energy=-76.17664442614081 energy=-76.17664442614081 free_energy=-76.17664442614081 pbc="T T T"
Y       10.11723549      11.80579569       7.51544436       0.00023788      -0.00013092       0.00021818
Y        9.76373061       9.76197310       9.76235814      -0.00018330       0.00002619      -0.00019862
Y       10.24453411       6.36575470       8.76841427       0.00038564       0.00048283       0.00007016
Y       13.09285393      10.99298174       9.38965644       0.00025730      -0.00018578      -0.00020457
Y       12.65221775       7.77510380      10.43200435      -0.00012180      -0.00031416      -0.00018736
Y        7.78716500      12.71601990      10.11711892       0.00045281       0.00002868      -0.00002527
Y        7.18164626       7.36138905       9.18808485      -0.00038730      -0.00024804       0.00060545
Y       10.94598441      12.95506861      10.83524764      -0.00038259       0.00030415      -0.00024473
Y        8.93374411      11.17384659      12.93522441      -0.00003107       0.00012998       0.00048715
Y        6.52613433       9.76521602      11.27188678      -0.00035610      -0.00067392      -0.00043339
Y       11.99698900      10.17890207      12.51573428      -0.00013665      -0.00007112      -0.00004430
Y        9.40563225       7.71777076      12.00817736       0.00027467       0.00024219      -0.00020465
Y       12.08143287       8.79140795       7.22625792       0.00003920       0.00002200       0.00029388
Y        8.92293497       8.55231629       6.50854037      -0.00008768      -0.00005070      -0.00025018
Y        6.77573242      10.51442123       7.95381743       0.00003898       0.00043860       0.00011828
16
Lattice="22.49369094224935 0.0 0.0 0.0 22.49369094224935 0.0 0.0 0.0 22.49369094224935" Properties=species:S:1:pos:R:3:forces:R:3 config_type=qcd dft_energy=-81.52387799 gap_energy=-80.91686443823866 relaxed_gap_energy=-81.1307384160944 energy=-81.1307384160944 free_energy=-81.1307384160944 pbc="T T T"
Y       12.44019715      11.49543275       8.58416435       0.00005125       0.00022756      -0.00013434
Y       12.27367675      10.34530108      11.56235616      -0.00007921      -0.00041259      -0.00020074
Y       11.88311648      14.57907769      10.30617155      -0.00088505      -0.00038157       0.00022856
Y        8.67252825      14.01101452       9.28147861       0.00014333       0.00039816       0.00010604
Y       11.58106645       8.23935393       9.25834239      -0.00013391      -0.00024703      -0.00013509
Y        9.15264172       8.91594673      11.44519565       0.00027137       0.00021280      -0.00012657
Y       14.69295790       8.99174304      10.50149435      -0.00037119       0.00044239       0.00021646
Y        8.96160975      10.66869290       8.63186700      -0.00012553      -0.00047740      -0.00004781
Y        7.14492111      11.81724589      11.40272745       0.00030917      -0.00021617      -0.00002350
Y       14.67816149      12.38492090      11.03312230       0.00009759       0.00025463       0.00001853
Y       12.15285791       7.63815177      12.71203400      -0.00032143       0.00027959       0.00029511
Y        9.22691454      14.60422739      12.59596017       0.00036435       0.00034058      -0.00007005
Y       12.42164657      13.29233643      13.31869225      -0.00016714       0.00001620      -0.00001235
Y       10.08387003      12.12067785      11.23392128       0.00029040       0.00002359      -0.00010491
Y       14.12970605      10.28588486      13.84600436       0.00071775      -0.00058086       0.00030725
Y       10.45365538      10.55951981      14.23599569      -0.00016176       0.00012014      -0.00031658
17
Lattice="22.63831897080847 0.0 0.0 0.0 22.63831897080847 0.0 0.0 0.0 22.63831897080847" Properties=species:S:1:pos:R:3:forces:R:3 config_type=qcd dft_energy=-87.63042722 gap_energy=-87.13646871203902 relaxed_gap_energy=-87.195855724241 energy=-87.195855724241 free_energy=-87.195855724241 pbc="T T T"
Y       14.91642573      11.44056073      11.77552329       0.00010471       0.00001262       0.00016618
Y       13.54834485       8.75790127      10.04216566      -0.00015424      -0.00001555       0.00023667
Y       12.92210086      12.05800910       8.90965276      -0.00042366       0.00041987       0.00050006
Y       13.89586433      14.74555755      11.58004686      -0.00051701      -0.00037617      -0.00007735
Y       13.57501662      12.97018640      14.57984767      -0.00031483      -0.00063938      -0.00039513
Y       12.44858354       9.43661211      13.34418943       0.00012763       0.00072253       0.00013749
Y       10.91237849       8.89409089       7.79816958      -0.00020440       0.00002245       0.00002780
Y       11.93475909      12.52622815      12.09948005      -0.00010891       0.00017242      -0.00024929
Y       10.59094048       7.11879247      10.79792211      -0.00008619      -0.00010162      -0.00009483
Y       10.79919820      14.66820462      10.02802998       0.00004987       0.00000671       0.00016266
Y       10.70368094      10.11232945      10.53904091       0.00029273       0.00027802       0.00039273
Y       10.96462563      15.02038018      13.47128895       0.00039963      -0.00030509      -0.00039003
Y       10.29351915      11.87240378      14.75434713       0.00009869       0.00002852       0.00001452
Y        9.43137772      11.98676091       8.29274479       0.00013316       0.00005740       0.00012544
Y        8.92590444       9.18894367      13.02186594       0.00021886      -0.00018500       0.00006265
Y        7.97812405       9.16989530       9.69015804       0.00002436       0.00024405      -0.00002581
Y        8.58486713      12.45885468      11.70123812       0.00035960      -0.00034179      -0.00059375
18
Lattice="22.85068546626485 0.0 0.0 0.0 22.85068546626485 0.0 0.0 0.0 22.85068546626485" Properties=species:S:1:pos:R:3:forces:R:3 config_type=qcd dft_energy=-92.96008041 gap_energy=-92.55095030273307 relaxed_gap_energy=-92.71879308365962 energy=-92.71879308365962 free_energy=-92.71879308365962 pbc="T T T"
Y       13.32370406      15.46003968      11.76685880      -0.00033134       0.00042970      -0.00017954
Y        7.74256216       9.26935188      12.75918120      -0.00043046       0.00001076       0.00028829
Y       13.27253909      13.79951849       8.77692749       0.00034115       0.00025813      -0.00037891
Y       11.02902412      11.03429078       8.33926800       0.00004206      -0.00016150       0.00008152
Y       10.80704863       7.75999975      12.92311822      -0.00004278      -0.00074386       0.00023196
Y       13.77059831       9.76830210      12.68513716       0.00016328      -0.00027129      -0.00019718
Y        8.15044548      12.57620970      12.80382073       0.00061331       0.00018946      -0.00023927
Y       14.37037596      10.66199602       9.25906665      -0.00017611      -0.00020183       0.00018633
Y       10.88819113      10.95757124      14.47655597      -0.00056344       0.00003741       0.00034952
Y       15.61379212      12.97611390      11.30673845       0.00039274      -0.00004104      -0.00013330
Y       12.54044810      12.45027476      11.46871851      -0.00004840      -0.00001268      -0.00053319
Y        9.02519528       7.99225768       9.86943948      -0.00035257      -0.00027384      -0.00038145
Y       10.01509352      13.93940094      10.19709832      -0.00012843       0.00018512       0.00047284
Y       10.30793164      10.40296031      11.38376421      -0.00013456       0.00042924      -0.00057501
Y       13.84343129      12.97120112      14.23172406       0.00049670       0.00013794       0.00041610
Y        7.77533213      11.17353007       9.77260053       0.00028935      -0.00007637       0.00043838
Y       10.82811754      14.34648803      13.67393918      -0.00050831      -0.00037652      -0.00007987
Y       12.35233866       8.11666275       9.96221224       0.00037781       0.00048118       0.00023278
19
Lattice="23.31166355277584 0.0 0.0 0.0 23.31166355277584 0.0 0.0 0.0 23.31166355277584" Properties=species:S:1:pos:R:3:forces:R:3 config_type=qcd dft_energy=-98.56076302 gap_energy=-98.25187687739721 relaxed_gap_energy=-98.43711892917591 energy=-98.43711892917591 free_energy=-98.43711892917591 pbc="T T T"
Y       13.09045192      13.73106053      13.82432167       0.00020356      -0.00031402       0.00019758
Y        9.62119220      14.48821032      13.58451180       0.00043041       0.00029972       0.00006401
Y       10.47960254      11.61437846      14.83752044      -0.00031236      -0.00018813       0.00048494
Y       13.53349326      10.45029298      15.33096398      -0.00035080       0.00014408      -0.00040430
Y       11.60241313      15.66898487      11.20014333       0.00011779       0.00008336       0.00034430
Y        8.01408312      11.63552678      12.42442068       0.00014366      -0.00008952       0.00008499
Y       14.01560231      13.44396607      10.35082595      -0.00059314       0.00007961       0.00006693
Y       11.04329301       8.50597847      13.62920290      -0.00012958      -0.00025937       0.00046793
Y       12.68096821      10.77490118      12.28874439       0.00003594       0.00036477       0.00076802
Y       15.68389572      11.64704452      12.90684050       0.00008823       0.00064710       0.00036673
Y       14.61063893       8.32266711      12.96298317       0.00006251      -0.00041460      -0.00036508
Y       10.66541842      12.54422295      11.00888674       0.00060582      -0.00024229      -0.00042592
Y       10.95246898      14.09853915       8.27316194      -0.00058907       0.00000083      -0.00023714
Y        9.53315537       9.25716614      10.61183738       0.00051489       0.00042208      -0.00019678
Y        8.35775381      14.70760626      10.52323041       0.00037196       0.00005737      -0.00058819
Y       12.47543409       7.93714172      10.47115417      -0.00002989      -0.00040231      -0.00004579
Y       14.90809805      10.14009127       9.99563139      -0.00038391      -0.00003499      -0.00031021
Y       11.75207242      10.67054509       8.38957108      -0.00076015       0.00034152      -0.00010994
Y        8.44076828      11.82247989       8.84685186       0.00057414      -0.00049523      -0.00016207
19
Lattice="22.98921853640573 0.0 0.0 0.0 22.98921853640573 0.0 0.0 0.0 22.98921853640573" Properties=species:S:1:pos:R:3:forces:R:3 config_type=qcd dft_energy=-98.5458253 gap_energy=-98.09504455506499 relaxed_gap_energy=-98.43712188875772 energy=-98.43712188875772 free_energy=-98.43712188875772 pbc="T T T"
Y       14.89911520      10.78496566      10.17333434       0.00054459      -0.00053983       0.00025276
Y       14.23791154      11.23357564      13.42996864      -0.00011260      -0.00037911       0.00023113