3
Lattice="22.2349120410616 0.0 0.0 0.0 22.2349120410616 0.0 0.0 0.0 22.2349120410616" Properties=species:S:1:pos:R:3:forces:R:3 config_type=qcd dft_energy=-0.81712186 gap_energy=-0.6401552984611768 relaxed_gap_energy=-0.6840836446605706 energy=-0.6840836446605706 free_energy=-0.6840836446605706 pbc="T T T"
Zn       9.88967789      10.61215300       9.66469607       0.00000000       0.00000000       0.00000000
Zn      12.53256015      12.45464059      10.79288141       0.00000000       0.00000000       0.00000000
Zn      10.93013002      10.28557447      12.89479060       0.00000000       0.00000000       0.00000000
4
Lattice="14.607053 0.0 0.0 0.0 14.607053 0.0 0.0 0.0 14.607053" Properties=species:S:1:pos:R:3:forces:R:3 config_type=qcd dft_energy=-1.62627313 gap_energy=-0.9705452979840353 relaxed_gap_energy=-0.9710748448471983 energy=-0.9710748448471983 free_energy=-0.9710748448471983 pbc="T T T"
Zn       5.73275568       6.80583902       7.55141556       0.00015972       0.00031196       0.00023986
Zn       7.57648944       8.71727655       8.14207418      -0.00030926      -0.00033839       0.00012700
Zn       8.35162672       6.12599562       7.84414384       0.00016828      -0.00018033       0.00042013
Zn       7.55323416       7.56499481       5.67647242      -0.00001874       0.00020676      -0.00078699
5
Lattice="23.38941559072466 0.0 0.0 0.0 23.38941559072466 0.0 0.0 0.0 23.38941559072466" Properties=species:S:1:pos:R:3:forces:R:3 config_type=qcd dft_energy=-1.99198323 gap_energy=-1.346297739532095 relaxed_gap_energy=-1.4765250438969106 energy=-1.4765250438969106 free_energy=-1.4765250438969106 pbc="T T T"
Zn      11.93128347      10.53652185      12.44376801      -0.00007991      -0.00016857       0.00010230
Zn      11.56116804      12.77820629      13.81550136      -0.00002742      -0.00003008      -0.00002578
Zn      10.32051469      12.36902629      11.53767064      -0.00003123      -0.00008091      -0.00002867
Zn      11.83547319      10.33702791       9.71819596      -0.00010933       0.00001334       0.00009346
Zn      12.82509961      12.45275664      10.95840300       0.00024789       0.00026622      -0.00014131
5
Lattice="17.47769746387471 0.0 0.0 0.0 17.47769746387471 0.0 0.0 0.0 17.47769746387471" Properties=species:S:1:pos:R:3:forces:R:3 config_type=qcd dft_energy=-1.98751646 gap_energy=-1.3617769511033773 relaxed_gap_energy=-1.4673838070583587 energy=-1.4673838070583587 free_energy=-1.4673838070583587 pbc="T T T"
Zn       8.63787497      10.71787741       8.51674394       0.00004361       0.00060748       0.00014736
Zn      10.27447126       8.66848230       8.09029746       0.00021738      -0.00014643       0.00013769
Zn       8.36659575       9.09399332       6.43034838      -0.00000688       0.00022929      -0.00088693
Zn       7.86606596       7.73678457       8.62074945      -0.00030346      -0.00063512       0.00061773
Zn       7.43332169       6.35204972      10.91137534       0.00004935      -0.00005522      -0.00001584
6
Lattice="16.449498 0.0 0.0 0.0 16.449498 0.0 0.0 0.0 16.449498" Properties=species:S:1:pos:R:3:forces:R:3 config_type=qcd dft_energy=-2.43352158 gap_energy=-1.7100121880196522 relaxed_gap_energy=-2.0809902351292404 energy=-2.0809902351292404 free_energy=-2.0809902351292404 pbc="T T T"
Zn       6.96616822       9.15273881       8.56599310      -0.00023556       0.00021030       0.00003331
Zn       8.84582131       9.56129252       6.80672925       0.00021499      -0.00018141       0.00008120
Zn       7.25213697       7.56131569       6.51494780      -0.00024888       0.00001777       0.00008249
Zn       9.45879472       7.26597374       7.87998619       0.00061573      -0.00006650      -0.00050899
Zn       7.62202737       6.89246252       9.69818143      -0.00028890      -0.00028206       0.00018865
Zn       9.20354540       8.91471070       9.88265621      -0.00005739       0.00030191       0.00012335
6
Lattice="30.0 0.0 0.0 0.0 30.0 0.0 0.0 0.0 30.0" Properties=species:S:1:pos:R:3:forces:R:3 config_type=qcd dft_energy=-2.41831269 gap_energy=-1.7018829820918935 relaxed_gap_energy=-2.1974222711040223 energy=-2.1974222711040223 free_energy=-2.1974222711040223 pbc="T T T"
Zn       9.14908051       9.20196961      10.67317263       0.00030686      -0.00017022      -0.00037325
Zn      10.43072777       9.22659438       8.47903992       0.00001485       0.00016843       0.00053602
Zn       7.35524807       9.66812433       8.83135005      -0.00028640       0.00076212       0.00055836
Zn       6.78117655       7.31186761       7.60651062       0.00067139      -0.00006775      -0.00031730
Zn       8.56087387       8.76806168       6.52485831      -0.00045988      -0.00047207      -0.00057749
Zn       8.91384368       7.00877980       9.08561760      -0.00024682      -0.00022051       0.00017367
6
Lattice="17.6697005159927 0.0 0.0 0.0 17.6697005159927 0.0 0.0 0.0 17.6697005159927" Properties=species:S:1:pos:R:3:forces:R:3 config_type=qcd dft_energy=-2.41007133 gap_energy=-1.814928678860694 relaxed_gap_energy=-2.0820591505070833 energy=-2.0820591505070833 free_energy=-2.0820591505070833 pbc="T T T"
Zn      10.18443379      13.32163308       9.77468197       0.00001459      -0.00062987      -0.00047604
Zn      10.68428409      11.93449392      11.88341476       0.00031843      -0.00015190       0.00072449
Zn       9.47181812       9.41034726      11.69918711      -0.00036963      -0.00013905       0.00032243
Zn      11.98778504       9.53142021      11.09183583      -0.00027028       0.00076887      -0.00041451
Zn      10.48132243      10.83103425       9.11281400       0.00037102      -0.00005357       0.00012276
Zn      10.36812281       8.21943179       9.59551716      -0.00006412       0.00020553      -0.00027913
6
Lattice="17.75342148725671 0.0 0.0 0.0 17.75342148725671 0.0 0.0 0.0 17.75342148725671" Properties=species:S:1:pos:R:3:forces:R:3 config_type=qcd dft_energy=-2.40601941 gap_energy=-1.8291213264737092 relaxed_gap_energy=-1.9658621538444319 energy=-1.9658621538444319 free_energy=-1.9658621538444319 pbc="T T T"
Zn      10.97366994       8.36927423       7.86946132       0.00049488       0.00034293      -0.00016885
Zn      10.53917873      10.23229545       9.55380488       0.00008505      -0.00058857       0.00000519
Zn      10.38411588       7.71964547      10.36351453      -0.00064444       0.00040083      -0.00011342
Zn       8.42565794       8.97204412       8.47328011       0.00040649      -0.00000980      -0.00003980
Zn       6.39341421       7.74514144       7.35177492      -0.00018129      -0.00009499       0.00024790
Zn       5.95287374       9.63123578       9.05821978      -0.00016069      -0.00005039       0.00006898
6
Lattice="18.50474198581661 0.0 0.0 0.0 18.50474198581661 0.0 0.0 0.0 18.50474198581661" Properties=species:S:1:pos:R:3:forces:R:3 config_type=qcd dft_energy=-2.38706348 gap_energy=-1.6666192461797689 relaxed_gap_energy=-1.9769810166084394 energy=-1.9769810166084394 free_energy=-1.9769810166084394 pbc="T T T"
Zn      10.10338950      10.82511464      11.07712853      -0.00023045      -0.00012762      -0.00003409
Zn      10.72624313       8.31502842      11.11729367       0.00005307       0.00000761      -0.00023286
Zn      10.30587839       8.91270217       8.64697960       0.00021234       0.00015851       0.00032419
Zn       8.40178072       7.67997160       7.42689176      -0.00019985      -0.00051204      -0.00008843
Zn       7.77823038      10.18985238       7.38806809      -0.00000687       0.00029593      -0.00004723
Zn       8.19870385       9.59155675       9.85786430       0.00017178       0.00017760       0.00007842
7
Lattice="17.3890026 0.0 0.0 0.0 17.3890026 0.0 0.0 0.0 17.3890026" Properties=species:S:1:pos:R:3:forces:R:3 config_type=qcd dft_energy=-3.13480205 gap_energy=-2.3371343582233797 relaxed_gap_energy=-2.430760304860555 energy=-2.430760304860555 free_energy=-2.430760304860555 pbc="T T T"
Zn       9.98960123       7.94628602      11.01344430       0.00079558      -0.00005617      -0.00014119
Zn       8.69450130      10.19117083      11.01530910      -0.00000000      -0.00024340      -0.00069267
Zn       7.39940137       7.94628602      11.01344430      -0.00079558      -0.00005617      -0.00014119
Zn       7.39940137       9.44271658       6.37555830      -0.00079558       0.00005618       0.00014119
Zn       8.69450130       8.69450130       8.69450130       0.00000000       0.00000000       0.00000000
Zn       9.98960123       9.44271658       6.37555830       0.00079558       0.00005618       0.00014119
Zn       8.69450130       7.19783177       6.37369350      -0.00000000       0.00024340       0.00069267
7
Lattice="16.657039 0.0 0.0 0.0 16.657039 0.0 0.0 0.0 16.657039" Properties=species:S:1:pos:R:3:forces:R:3 config_type=qcd dft_energy=-3.11905715 gap_energy=-2.4573037161330253 relaxed_gap_energy=-2.565872731799444 energy=-2.565872731799444 free_energy=-2.565872731799444 pbc="T T T"
Zn       6.30906023       8.14270987       7.73824656       0.00082548      -0.00036423      -0.00013386
Zn       7.70966701      10.24263250       6.68599521       0.00000514      -0.00026586       0.00045523
Zn       7.89740269       6.26124658       8.34700791       0.00006409      -0.00053779       0.00024825
Zn      10.46782519       6.97715022       7.74433490      -0.00038006       0.00015424      -0.00045245
Zn       6.98983530      10.41370350       9.10036267       0.00021059       0.00068249      -0.00022134
Zn       9.18072281       9.11128322       8.52633602      -0.00041770       0.00054125       0.00019945
Zn       9.74512326       7.15091061      10.15735323      -0.00030755      -0.00021010      -0.00009527
7
Lattice="19.81568534548864 0.0 0.0 0.0 19.81568534548864 0.0 0.0 0.0 19.81568534548864" Properties=species:S:1:pos:R:3:forces:R:3 config_type=qcd dft_energy=-3.10110073 gap_energy=-2.133032798329281 relaxed_gap_energy=-2.3863630328248027 energy=-2.3863630328248027 free_energy=-2.3863630328248027 pbc="T T T"
Zn      10.84652321       7.61350510      10.77421969      -0.00014303      -0.00020057      -0.00009068
Zn      11.28243691       9.65423121      12.17607175       0.00000330       0.00003700      -0.00036273
Zn      12.49351234       9.49304037       9.77879202       0.00068931      -0.00029954       0.00050034
Zn       9.49479356       9.77174290      10.34377062       0.00027892       0.00006887      -0.00012455
Zn       9.75688433      10.97544398       7.72171144      -0.00031121       0.00042646       0.00024016
Zn       7.54580377       9.88387505       8.55986514      -0.00023306      -0.00008693       0.00041505
Zn       7.93494459      11.96306012      10.00046805      -0.00028423       0.00005471      -0.00057761
8
Lattice="17.79970512681438 0.0 0.0 0.0 17.79970512681438 0.0 0.0 0.0 17.79970512681438" Properties=species:S:1:pos:R:3:forces:R:3 config_type=qcd dft_energy=-3.83971576 gap_energy=-2.8929310206869516 relaxed_gap_energy=-3.1758650344709096 energy=-3.1758650344709096 free_energy=-3.1758650344709096 pbc="T T T"
Zn      11.05078229       8.68973187       6.97558948       0.00053442      -0.00057684      -0.00006640
Zn       7.60596704      11.43154027       8.83699479      -0.00037165       0.00044783       0.00034582
Zn       7.09967192       8.59971774       9.27081447       0.00022808       0.00000429       0.00013174
Zn       9.74920133       9.75962206       9.12814999       0.00014119       0.00019938      -0.00063923
Zn       6.56322942       6.79667537       7.59737924      -0.00034559       0.00040574       0.00037503
Zn       7.96529354      10.39295659      11.10170542      -0.00070609      -0.00056208      -0.00014925
Zn       8.97177048       7.10898721       8.25888853       0.00014045       0.00007759      -0.00005632
Zn      11.44770696       7.61786012       9.21854010       0.00037918       0.00000409       0.00005860
8
Lattice="16.45901426383013 0.0 0.0 0.0 16.45901426383013 0.0 0.0 0.0 16.45901426383013" Properties=species:S:1:pos:R:3:forces:R:3 config_type=qcd dft_energy=-3.80413364 gap_energy=-2.8394049456851107 relaxed_gap_energy=-3.3399569791292762 energy=-3.3399569791292762 free_energy=-3.3399569791292762 pbc="T T T"
Zn      11.45420917       8.75928057       8.11281706      -0.00008160      -0.00023100      -0.00003832
Zn      10.25728072      11.00634455       8.70882306      -0.00026931       0.00022144       0.00037453
Zn       8.93995636       8.70516067       8.59836004       0.00016141      -0.00018915       0.00030718
Zn       7.78756929      11.38954067       9.50202333       0.00054998      -0.00003640       0.00021845
Zn      11.34139309       9.46014858      10.57367064      -0.00035546       0.00020786       0.00011944
Zn       9.69896990      11.99061677      11.07410401      -0.00021432      -0.00050978      -0.00042511
Zn       9.94973140       7.31131397      10.49535245      -0.00021190       0.00063924      -0.00024056
Zn       8.74290087       9.54960501      11.10686019       0.00042121      -0.00010221      -0.00031561
9
Lattice="24.21038252707141 0.0 0.0 0.0 24.21038252707141 0.0 0.0 0.0 24.21038252707141" Properties=species:S:1:pos:R:3:forces:R:3 config_type=qcd dft_energy=-4.85830255 gap_energy=-3.801396434640737 relaxed_gap_energy=-3.946714810305253 energy=-3.946714810305253 free_energy=-3.946714810305253 pbc="T T T"
Zn      12.42623790      14.22862139      12.78338270       0.00038723      -0.00036441      -0.00054358
Zn      11.19595062      13.84823615      10.54026222      -0.00007085      -0.00033732      -0.00026110
Zn      11.39016460      10.18081968      13.02280347      -0.00022322      -0.00032449       0.00022782
Zn      13.75500507      12.74642238      10.72049419       0.00014709       0.00077437      -0.00043801
Zn       9.91464498      12.54686955      12.36378483      -0.00056844       0.00011637       0.00025957
Zn      11.24180569      11.06722967      10.30033894       0.00071810       0.00033669      -0.00003674
Zn      11.60562233      12.24110648      14.56388933       0.00022300      -0.00007331       0.00047758
Zn      13.51429600      10.22622351      11.21130405      -0.00030296       0.00015174       0.00010303
Zn      13.90299417      11.86119255      13.44046165      -0.00030994      -0.00027964       0.00021143
10
Lattice="15.83922820537758 0.0 0.0 0.0 15.83922820537758 0.0 0.0 0.0 15.83922820537758" Properties=species:S:1:pos:R:3:forces:R:3 config_type=qcd dft_energy=-5.94004639 gap_energy=-4.441574800900037 relaxed_gap_energy=-4.691781083703313 energy=-4.691781083703313 free_energy=-4.691781083703313 pbc="T T T"
Zn       6.31742679       5.96603554       6.31276016      -0.00012816       0.00019193       0.00032390
Zn       8.74558133       6.78773029       6.42372564       0.00013336       0.00022863      -0.00046893
Zn       8.71631641       9.38731366       5.96224830      -0.00008281      -0.00014146      -0.00042920
Zn       6.22671297       8.46995648       6.72852912       0.00007109      -0.00001011       0.00003744
Zn      10.32769291       8.75406784       8.04997531      -0.00011041       0.00032632      -0.00034322
Zn       7.87953868      10.18352429       8.48261063       0.00021914      -0.00036008       0.00029546
Zn       9.64502598       6.25125268       8.84681836      -0.00002427       0.00005869       0.00057751
Zn       8.41972019       8.36749063      10.15375758      -0.00081474      -0.00037745       0.00025944
Zn       6.88517237       6.24909968       8.77236692       0.00030172      -0.00043904      -0.00020351
Zn       6.03295340       8.77966993       9.46334903       0.00043507       0.00052257      -0.00004889
11
Lattice="20.640116 0.0 0.0 0.0 20.640116 0.0 0.0 0.0 20.640116" Properties=species:S:1:pos:R:3:forces:R:3 config_type=qcd dft_energy=-6.43739202 gap_energy=-4.967705676925962 relaxed_gap_energy=-5.435296699145584 energy=-5.435296699145584 free_energy=-5.435296699145584 pbc="T T T"
Zn      10.32005800      10.32005800      12.90089844      -0.00000000       0.00000000       0.00026321
Zn      11.85825765      11.73796521      11.21241182      -0.00010554       0.00002499       0.00002902
Zn      10.32005800      13.54809792      10.34140464       0.00000000      -0.00018502      -0.00038560
Zn       8.78185835      11.73796521      11.21241182       0.00010554       0.00002499       0.00002902
Zn       8.78185836       8.90215079      11.21241182       0.00010550      -0.00002498       0.00002904
Zn       8.12959907      10.32005800       8.96403042       0.00025128       0.00000000      -0.00002074
Zn      10.32005800      11.71479489       8.57961117       0.00000000       0.00040642       0.00021671
Zn      12.51051693      10.32005800       8.96403042      -0.00025128       0.00000000      -0.00002074
Zn      11.85825764       8.90215079      11.21241182      -0.00010550      -0.00002498       0.00002903
Zn      10.32005800       8.92532111       8.57961118       0.00000000      -0.00040640       0.00021667
Zn      10.32005800       7.09201809      10.34140464       0.00000000       0.00018498      -0.00038560
12
Lattice="18.792621 0.0 0.0 0.0 18.792621 0.0 0.0 0.0 18.792621" Properties=species:S:1:pos:R:3:forces:R:3 config_type=qcd dft_energy=-7.09645446 gap_energy=-5.299542746384841 relaxed_gap_energy=-5.646409494390493 energy=-5.646409494390493 free_energy=-5.646409494390493 pbc="T T T"
Zn       8.73090914       7.10742614       9.38444610      -0.00001965      -0.00011321       0.00047598
Zn      11.62331676       9.71703988       8.15719434       0.00025840      -0.00027244      -0.00023143
Zn      10.14159626       7.58051890      11.64413396      -0.00023471       0.00006893      -0.00024777
Zn      11.60119759       9.71146182      10.67373751       0.00015017       0.00012078      -0.00009126
Zn       8.07334538      12.86392943       9.39269319      -0.00038870       0.00031950      -0.00001893
Zn      10.36880587      11.47759888       9.40834047      -0.00056513      -0.00034840       0.00059184
Zn       8.72227733       9.82217400       7.86438662       0.00009644       0.00037744      -0.00068294
Zn       5.99031361      11.08543429       9.37728908      -0.00001704       0.00001114      -0.00046105
Zn      11.64327442       7.14544149       9.40990299       0.00007312      -0.00014319      -0.00004261
Zn       8.69655582       9.81515508      10.91816592       0.00049714      -0.00047505       0.00007687
Zn       6.98455061       8.83734317       9.37446913       0.00049085       0.00019570       0.00033004
Zn      10.17958322       7.59220293       7.15096668      -0.00034088       0.00025881       0.00030126
12
Lattice="20.39119607021384 0.0 0.0 0.0 20.39119607021384 0.0 0.0 0.0 20.39119607021384" Properties=species:S:1:pos:R:3:forces:R:3 config_type=qcd dft_energy=-7.05871013 gap_energy=-5.363879400068523 relaxed_gap_energy=-6.090686498653422 energy=-6.090686498653422 free_energy=-6.090686498653422 pbc="T T T"
Zn       9.29251183      10.45713187       7.30176370      -0.00036202       0.00012568      -0.00019076
Zn      10.22859159       8.02062409       7.87447292      -0.00004053      -0.00013345      -0.00009267
Zn       8.02630979       8.97340145       9.40360134       0.00009576       0.00009303       0.00012541
Zn      11.87332067       9.80225548       8.81772778       0.00047505       0.00007585       0.00031672
Zn      11.07786551      12.19175839       8.46168857       0.00001048       0.00012379       0.00026781
Zn       9.19085425      11.41194692       9.96374438       0.00004642       0.00037023      -0.00007214
Zn      11.42881221      11.85387747      10.99434383       0.00001824      -0.00027613      -0.00037221
Zn      12.67045720       9.61968412      11.26106085      -0.00033296       0.00000816      -0.00011998
Zn       8.22865725       9.58028504      11.81252734       0.00002032      -0.00019646       0.00002359
Zn      10.21938415       8.56454081      10.64271695       0.00011048      -0.00039548       0.00014111
Zn       9.38917471      12.06953884      12.65933758      -0.00011418       0.00011674      -0.00010113
Zn      10.72123727       9.80213192      13.15419118       0.00007293       0.00008804       0.00007425
13
Lattice="20.02317346715892 0.0 0.0 0.0 20.02317346715892 0.0 0.0 0.0 20.02317346715892" Properties=species:S:1:pos:R:3:forces:R:3 config_type=qcd dft_energy=-7.82147282 gap_energy=-5.970970950262517 relaxed_gap_energy=-6.41402494040735 energy=-6.41402494040735 free_energy=-6.41402494040735 pbc="T T T"
Zn       8.80081251      12.38801976       8.83378391       0.00078819      -0.00031785       0.00006173
Zn      11.14230994      11.91011928       9.64044751      -0.00059795      -0.00051595       0.00036749
Zn       7.35953790      10.20947712       7.86531806      -0.00020512      -0.00010567       0.00010447
Zn      13.47311922      10.63501714      10.25975440      -0.00032693       0.00005412      -0.00012207
Zn      10.12561198       9.92199069       7.98945317       0.00015110       0.00055837       0.00018335
Zn       6.74437156      10.90783421      10.24372414      -0.00042186       0.00010037       0.00034495
Zn      12.82599064       9.05938918      12.23253332       0.00016666       0.00009836       0.00021515
Zn       9.19278259      11.93779906      11.26053473       0.00042078      -0.00022490      -0.00038429
Zn       8.14336241       8.37055127       9.72877196      -0.00006393      -0.00001915      -0.00009617
Zn       8.26124853       9.54413715      12.16882682       0.00012234       0.00007601      -0.00045422
Zn      12.92484367       7.92091677       9.78597184      -0.00026226       0.00005517      -0.00004278
Zn      10.49659071       7.76844813       9.14162571       0.00028225      -0.00033105       0.00001388
Zn      10.66004588       9.57692778      10.99988197      -0.00005326       0.00057218      -0.00019150
14
Lattice="18.801529 0.0 0.0 0.0 18.801529 0.0 0.0 0.0 18.801529" Properties=species:S:1:pos:R:3:forces:R:3 config_type=qcd dft_energy=-8.6009347 gap_energy=-6.642330059879724 relaxed_gap_energy=-7.513526631326483 energy=-7.513526631326483 free_energy=-7.513526631326483 pbc="T T T"
Zn      11.03177774       7.65163572       8.16081286       0.00077560       0.00020575       0.00030274
Zn       9.72020682      12.23327966       8.11955883      -0.00004610      -0.00009943       0.00021101
Zn       8.94126481       7.21357171      10.44719472       0.00022647       0.00031216      -0.00029626
Zn       7.29302379       8.97084532      10.14652502       0.00030146      -0.00004883       0.00006413
Zn       8.68575918       6.69361075       8.01954545      -0.00069710      -0.00029694      -0.00002108
Zn       8.81647777       9.28557058       8.08234767      -0.00021137      -0.00013819       0.00052614
Zn       6.99102619      11.43633539       9.18692605      -0.00010921       0.00003169      -0.00004368
Zn      11.69235406       8.69243103      10.62735077      -0.00013818      -0.00008931       0.00002439
Zn       9.46916808      10.31465042      10.52032418      -0.00012106      -0.00001642      -0.00032269
Zn      11.21361305       6.20464484      10.26378242      -0.00024248       0.00080865      -0.00003525
Zn       9.84908728       8.52813876      12.36480911       0.00009621      -0.00038511      -0.00015451
Zn       7.80123022      11.24658855       6.68381421       0.00022118       0.00015686       0.00000394
Zn       8.81509375      12.84498004      10.46990380       0.00017959      -0.00023781      -0.00024777
Zn      11.29062026      10.29442023       8.51780792      -0.00023501      -0.00020307      -0.00001112
15
Lattice="18.58412309121793 0.0 0.0 0.0 18.58412309121793 0.0 0.0 0.0 18.58412309121793" Properties=species:S:1:pos:R:3:forces:R:3 config_type=qcd dft_energy=-9.60238351 gap_energy=-7.523758002786572 relaxed_gap_energy=-8.210157808378831 energy=-8.210157808378831 free_energy=-8.210157808378831 pbc="T T T"
Zn       8.30270659       9.76423155       6.01541678       0.00012642      -0.00020197      -0.00020593
Zn      10.63323139       9.93704738       6.92146676      -0.00011112       0.00021519      -0.00008272
Zn       9.25756066      12.37890430       6.61390032       0.00053828      -0.00009290       0.00028106
Zn       9.14435209       8.07428135       7.75196548      -0.00004106       0.00005066       0.00042007
Zn       7.89997460      10.49407709       8.41907604      -0.00026074      -0.00027448       0.00027291
Zn      10.86212900      11.55164991       8.77988671       0.00009096       0.00046482      -0.00030933
Zn       7.92997229       6.11607697       9.31319488      -0.00032392       0.00000660       0.00007515
Zn      11.53835742       8.96191282       9.30207417       0.00024740       0.00015151       0.00022347
Zn       8.71871776      12.69794568       9.39150966      -0.00003739       0.00007690      -0.00030464
Zn      10.33358787       6.71889344       9.76122418       0.00012376       0.00051528      -0.00047867
Zn       7.73980156       8.46928493      10.19783836       0.00020559      -0.00022227       0.00028674
Zn       9.50811433      10.64302843      10.70785405      -0.00013628      -0.00047576      -0.00000977
Zn       8.61741624       6.27560244      11.99649716      -0.00032588      -0.00008413       0.00032694
Zn      10.56135834       8.32846916      11.61262657       0.00007043      -0.00006037      -0.00072314
Zn       8.33364305       8.96951772      12.59639208      -0.00016646      -0.00006910       0.00022785
15
Lattice="19.56489249576178 0.0 0.0 0.0 19.56489249576178 0.0 0.0 0.0 19.56489249576178" Properties=species:S:1:pos:R:3:forces:R:3 config_type=qcd dft_energy=-9.58811722 gap_energy=-7.841324033021046 relaxed_gap_energy=-8.280051891060701 energy=-8.280051891060701 free_energy=-8.280051891060701 pbc="T T T"
Zn       7.33461437       8.37305025       5.88737148       0.00002846      -0.00007670      -0.00016908
Zn      10.11280105       8.17537359       6.20748387      -0.00089163      -0.00001145       0.00021784
Zn       8.45931054       6.04597247       7.03503486       0.00036149       0.00013274      -0.00002846
Zn       8.96558544       9.97735524       7.53136449       0.00090007       0.00023060      -0.00019952
Zn       6.17872409       9.91886008       7.94324578      -0.00069563      -0.00031675      -0.00016503
Zn       6.06213966       7.12146782       8.08107709       0.00011544      -0.00030990       0.00044290
Zn      11.43606352       9.59306998       7.78380078      -0.00006819       0.00013014       0.00020651
Zn       7.50206264      11.33598975       9.52001401       0.00033357       0.00035092       0.00002786
Zn      10.31150228      11.56138205       9.43317276       0.00022602      -0.00047800      -0.00016256
Zn       9.94612368       7.49746328       8.93761460       0.00050438       0.00027122      -0.00064672
Zn       7.41044006       8.84701955       9.85363464      -0.00040363       0.00031734      -0.00026409
Zn       8.04570762       6.10213678       9.80721822      -0.00041579      -0.00038748      -0.00040951
Zn      11.43715123       9.23396527      10.58047251      -0.00003515       0.00027119       0.00011207
Zn       9.03972306      10.30921841      11.62695531       0.00011758      -0.00005596       0.00031446
Zn       9.36981818       7.51944290      11.38330701      -0.00007699      -0.00006791       0.00072333
15
Lattice="19.77648084807895 0.0 0.0 0.0 19.77648084807895 0.0 0.0 0.0 19.77648084807895" Properties=species:S:1:pos:R:3:forces:R:3 config_type=qcd dft_energy=-9.57521784 gap_energy=-7.601873539479591 relaxed_gap_energy=-8.404567194048774 energy=-8.404567194048774 free_energy=-8.404567194048774 pbc="T T T"
Zn      11.45373402      11.56918100      11.01181827      -0.00002339      -0.00027235       0.00028010
Zn       9.95451081       9.64589920      11.74914763      -0.00011628       0.00003445       0.00008921
Zn       8.50467424      11.36951308      10.32392811      -0.00016303      -0.00033236       0.00012065
Zn       7.23149275      10.09832550      12.14752212       0.00015654       0.00040491       0.00001990
Zn      12.39624093       9.20838984      10.68508991       0.00004829      -0.00020144       0.00014636
Zn      10.43056855      10.71202810       8.86671729       0.00006676      -0.00024017      -0.00090178
Zn      12.96180213      10.43821451       8.51289574       0.00011661       0.00033031       0.00003712
Zn       7.89341236       8.28535897      10.49170505      -0.00000500       0.00007418       0.00019443
Zn      10.46843864       7.53300024      10.35607920      -0.00014652      -0.00036381      -0.00042758
Zn       5.83119585      10.45980395       9.86197506      -0.00014825      -0.00015915      -0.00025631
Zn      11.94618346       8.09652626       8.32359403      -0.00042106       0.00038641       0.00011183
Zn       8.08063051      10.32227032       8.09838580       0.00018091       0.00027573      -0.00032374
Zn      10.62221762       9.51550131       6.64952509       0.00033960       0.00007543       0.00007574
Zn       9.26056851       7.93209286       8.10811037      -0.00001042       0.00023451       0.00006212
Zn       6.50934536       8.31631953       8.35795507       0.00012524      -0.00024666       0.00077195
16
Lattice="20.313413 0.0 0.0 0.0 20.313413 0.0 0.0 0.0 20.313413" Properties=species:S:1:pos:R:3:forces:R:3 config_type=qcd dft_energy=-10.29060603 gap_energy=-8.27183529791182 relaxed_gap_energy=-8.669156465975377 energy=-8.669156465975377 free_energy=-8.669156465975377 pbc="T T T"
Zn      12.60145775       8.47555535      11.65838173       0.00024270       0.00030972      -0.00003218
Zn      12.49882672      10.98240265      12.42340232      -0.00012571       0.00001866       0.00054472
Zn      10.36423395       7.87312990      10.10929258      -0.00038517       0.00025153      -0.00023728
Zn       7.36732209      10.79534343       8.66708065      -0.00016816      -0.00004340      -0.00006737