3
Lattice="15.634046 0.0 0.0 0.0 15.634046 0.0 0.0 0.0 15.634046" Properties=species:S:1:pos:R:3:forces:R:3 config_type=qcd dft_energy=-14.60956252 gap_energy=-15.400658589323417 relaxed_gap_energy=-15.403839584318973 energy=-15.403839584318973 free_energy=-15.403839584318973 pbc="T T T"
Zr       6.61366283       6.91224239       7.81702300      -0.00033479      -0.00058015       0.00000000
Zr       7.63507403       9.31153486       7.81702300       0.00013306       0.00071400       0.00000000
Zr       9.20233213       7.22729174       7.81702300       0.00020173      -0.00013384       0.00000000
4
Lattice="30.0 0.0 0.0 0.0 30.0 0.0 0.0 0.0 30.0" Properties=species:S:1:pos:R:3:forces:R:3 config_type=qcd dft_energy=-22.09726229 gap_energy=-22.51683112093898 relaxed_gap_energy=-22.560488369906018 energy=-22.560488369906018 free_energy=-22.560488369906018 pbc="T T T"
Zr       6.69893725       8.24178761       6.22558563       0.00006871      -0.00030717      -0.00020977
Zr       8.10506650       5.89726082       6.35113533       0.00014773       0.00027046       0.00019531
Zr       6.18711461       6.44470035       8.22500600      -0.00004179      -0.00026395      -0.00030417
Zr       5.45998654       5.87044332       5.64985272      -0.00017464       0.00030066       0.00031864
5
Lattice="30.0 0.0 0.0 0.0 30.0 0.0 0.0 0.0 30.0" Properties=species:S:1:pos:R:3:forces:R:3 config_type=qcd dft_energy=-29.48546947 gap_energy=-29.52361892811586 relaxed_gap_energy=-29.573326477747877 energy=-29.573326477747877 free_energy=-29.573326477747877 pbc="T T T"
Zr       9.87673956      11.42003732       9.94773855       0.00063785      -0.00007084       0.00050553
Zr      10.37080798      11.15156412      12.65894020      -0.00026426       0.00006471      -0.00064548
Zr      11.71689196      13.11728174      11.13090475      -0.00042645      -0.00005782      -0.00006373
Zr      13.05647366      11.67699599      13.07957871       0.00059935      -0.00001339       0.00021118
Zr      12.31251863      10.37661220      10.75104502      -0.00054649       0.00007734      -0.00000750
6
Lattice="18.41774071863611 0.0 0.0 0.0 18.41774071863611 0.0 0.0 0.0 18.41774071863611" Properties=species:S:1:pos:R:3:forces:R:3 config_type=qcd dft_energy=-36.46450217 gap_energy=-36.48435725421405 relaxed_gap_energy=-36.63877125801245 energy=-36.63877125801245 free_energy=-36.63877125801245 pbc="T T T"
Zr       7.58887634       8.89613303       8.40730341       0.00052562       0.00048651       0.00015626
Zr       8.99173860       7.13390679       6.88173345       0.00006556       0.00051152       0.00046148
Zr       4.67864539       5.83406096       6.28773586      -0.00048967      -0.00041918      -0.00038640
Zr       6.37506095       8.05515456       6.01930145       0.00019547      -0.00020787      -0.00016211
Zr       7.26621761       5.31831391       5.62507104      -0.00056196      -0.00003310      -0.00005151
Zr       6.60032883       6.27102773       8.28750756       0.00026497      -0.00033786      -0.00001773
6
Lattice="19.04856257362304 0.0 0.0 0.0 19.04856257362304 0.0 0.0 0.0 19.04856257362304" Properties=species:S:1:pos:R:3:forces:R:3 config_type=qcd dft_energy=-36.45121138 gap_energy=-36.016000215286894 relaxed_gap_energy=-36.058560045233136 energy=-36.058560045233136 free_energy=-36.058560045233136 pbc="T T T"
Zr       4.99340570       7.35381778       7.61024524      -0.00026834      -0.00016527      -0.00002925
Zr       6.19273966       5.30024621       6.04081304       0.00004089       0.00006770       0.00045771
Zr       7.53940702       8.58950410       7.94008680       0.00018302       0.00007001       0.00057204
Zr       7.17920362       5.85448282       8.65688194      -0.00013671       0.00031590      -0.00063792
Zr       8.73880051       6.53583006       6.37113113       0.00023053      -0.00017170      -0.00016707
Zr       6.55294610       8.03516469       5.32443004      -0.00004939      -0.00011663      -0.00019550
7
Lattice="17.54003890788655 0.0 0.0 0.0 17.54003890788655 0.0 0.0 0.0 17.54003890788655" Properties=species:S:1:pos:R:3:forces:R:3 config_type=qcd dft_energy=-44.42960823 gap_energy=-44.0432251891756 relaxed_gap_energy=-44.22883435598733 energy=-44.22883435598733 free_energy=-44.22883435598733 pbc="T T T"
Zr       7.36400062       9.41911027       6.88812785       0.00024444      -0.00027019       0.00063080
Zr       8.23874033      11.13652222       9.00808735      -0.00033517      -0.00029704      -0.00052949
Zr       9.99507653       9.12485468       7.97689981       0.00069575       0.00018248      -0.00005257
Zr       8.43233738       6.80449360       7.36922743       0.00017443       0.00070194      -0.00016041
Zr       9.84753341       9.58346669      10.79891732       0.00006869       0.00022561      -0.00036038
Zr       7.54482998       8.41518109       9.56293258      -0.00033998      -0.00011381       0.00063711
Zr       9.96761792       6.90650763       9.78594383      -0.00050816      -0.00042900      -0.00016506
8
Lattice="30.0 0.0 0.0 0.0 30.0 0.0 0.0 0.0 30.0" Properties=species:S:1:pos:R:3:forces:R:3 config_type=qcd dft_energy=-51.10654319 gap_energy=-50.633044455942326 relaxed_gap_energy=-50.65864731723087 energy=-50.65864731723087 free_energy=-50.65864731723087 pbc="T T T"
Zr      11.73946813       9.67438244       8.34203160      -0.00064560       0.00050891       0.00008926
Zr      10.27651860      10.05664090      10.78745023       0.00003327       0.00041676      -0.00044180
Zr       7.30246767       7.51917225       8.78576056      -0.00061934      -0.00055444      -0.00015108
Zr       7.57715289      10.25797736       9.61517838      -0.00000444       0.00088308      -0.00030060
Zr       8.18890872       8.10280745      11.41671311      -0.00025407      -0.00045235       0.00049982
Zr       9.83341744      11.76795268       8.52001621       0.00041061      -0.00068839      -0.00015198
Zr      10.11509892       7.47040260       9.37838030       0.00074651      -0.00055536      -0.00035566
Zr       9.09571562       9.27941232       7.28321761       0.00033305       0.00044179       0.00081205
8
Lattice="30.0 0.0 0.0 0.0 30.0 0.0 0.0 0.0 30.0" Properties=species:S:1:pos:R:3:forces:R:3 config_type=qcd dft_energy=-51.05947753 gap_energy=-50.58676839867002 relaxed_gap_energy=-50.75206156678361 energy=-50.75206156678361 free_energy=-50.75206156678361 pbc="T T T"
Zr      10.10735964      13.68905627      11.17468203      -0.00013699       0.00055189       0.00051168
Zr      11.28387964      12.60220948      13.45690805      -0.00010921      -0.00018100      -0.00064448
Zr      13.10405700      13.85766395      11.47321306      -0.00034551      -0.00038783       0.00009212
Zr      13.99817004      12.08674540      13.67145733       0.00024353       0.00027222       0.00037373
Zr      14.37768875      11.14045149      11.18269973       0.00067444      -0.00050883       0.00002196
Zr      11.69082852      11.49140144      10.51240794       0.00017790      -0.00016932      -0.00034016
Zr       9.50317548      10.90836123      12.14036905      -0.00066802      -0.00023695       0.00026391
Zr      12.23335584       9.85038225      12.86440643       0.00016385       0.00065981      -0.00027876
9
Lattice="30.0 0.0 0.0 0.0 30.0 0.0 0.0 0.0 30.0" Properties=species:S:1:pos:R:3:forces:R:3 config_type=qcd dft_energy=-58.53223046 gap_energy=-58.59073942932475 relaxed_gap_energy=-58.6769677302503 energy=-58.6769677302503 free_energy=-58.6769677302503 pbc="T T T"
Zr       9.60697661      10.51416676      12.83832846      -0.00021128      -0.00048020       0.00020971
Zr       9.95074721      13.31169663      12.26982690      -0.00065229       0.00041129      -0.00028786
Zr      14.23839767      11.13760598      12.62632580      -0.00000424       0.00002442       0.00023598
Zr      12.11883363       9.24044203      13.04754538       0.00024316      -0.00041170       0.00015536
Zr      11.63181691      14.05127829      10.05735137       0.00012526       0.00023051      -0.00031187
Zr      11.76229490      11.34598501      11.08853967      -0.00072597       0.00041923       0.00051374
Zr      14.14380228      12.77770969      10.26620632       0.00036738       0.00025025       0.00013978
Zr      11.73305974      11.78917858      14.13558255       0.00047261      -0.00012018      -0.00048005
Zr      12.89169969      13.81309097      12.54424351       0.00038537      -0.00032363      -0.00017480
10
Lattice="30.0 0.0 0.0 0.0 30.0 0.0 0.0 0.0 30.0" Properties=species:S:1:pos:R:3:forces:R:3 config_type=qcd dft_energy=-65.64471793 gap_energy=-66.01251038817922 relaxed_gap_energy=-66.17592282134727 energy=-66.17592282134727 free_energy=-66.17592282134727 pbc="T T T"
Zr       9.96626403       9.48207786       9.49341886      -0.00017192      -0.00004698      -0.00008470
Zr      10.54166202       6.74844522       8.70649911       0.00005777      -0.00019880      -0.00004845
Zr       8.51456455      11.92575938       9.90573229       0.00001382      -0.00016347      -0.00006095
Zr       9.24823583      11.10599079       7.19767163      -0.00004008       0.00011024      -0.00014338
Zr       8.60003864       8.22393445       7.03103291       0.00008310       0.00009691       0.00018856
Zr       7.78943203       7.30205036       9.64079189       0.00016350       0.00016818      -0.00001073
Zr       7.01055057       9.92609671       8.73220142       0.00022120      -0.00005089       0.00004736
Zr      11.25425352       8.99186404       6.97354269      -0.00012561       0.00000264       0.00009912
Zr       7.90211637       9.57508550      11.53149431      -0.00012415       0.00001570       0.00015461
Zr       9.85707245       7.40288570      11.47180489      -0.00007763       0.00006648      -0.00014144
11
Lattice="30.0 0.0 0.0 0.0 30.0 0.0 0.0 0.0 30.0" Properties=species:S:1:pos:R:3:forces:R:3 config_type=qcd dft_energy=-73.10947907 gap_energy=-73.15626909651249 relaxed_gap_energy=-73.59510701880964 energy=-73.59510701880964 free_energy=-73.59510701880964 pbc="T T T"
Zr      11.19765331       9.64402002       9.40692441       0.00022902       0.00019123       0.00012779
Zr       6.20564600       8.15058532       7.13084081       0.00029685      -0.00020177      -0.00012277
Zr       6.54517448      10.98103914       7.91229141      -0.00006583       0.00003206       0.00001583
Zr       7.55564395       6.58447759       9.17404483      -0.00008585       0.00004139       0.00010945
Zr       8.77438768       6.64481450       6.53569800      -0.00026190       0.00013285       0.00006648
Zr      10.42061887       6.78472335       9.02487237      -0.00028522       0.00003385       0.00014710
Zr      11.26199426       8.21608240       6.81960358       0.00010672       0.00001363      -0.00018108
Zr       9.04764474       8.43113200      10.94188694      -0.00005272      -0.00015128      -0.00005056
Zr       8.62897221      11.14977314      10.00195880       0.00008269       0.00031689       0.00024074
Zr       6.43836887       9.11908784       9.94744569       0.00033570      -0.00020542      -0.00017684
Zr       8.77235267       9.14272182       7.95289018      -0.00029947      -0.00020343      -0.00017613
12
Lattice="30.0 0.0 0.0 0.0 30.0 0.0 0.0 0.0 30.0" Properties=species:S:1:pos:R:3:forces:R:3 config_type=qcd dft_energy=-80.7536506 gap_energy=-80.81928054679086 relaxed_gap_energy=-81.17092480825923 energy=-81.17092480825923 free_energy=-81.17092480825923 pbc="T T T"
Zr       8.01808357       8.97719449       6.33195498      -0.00009076      -0.00005130       0.00016627
Zr      10.88336996       8.87783603       7.05418189       0.00008840      -0.00013498      -0.00078286
Zr      11.28701534      10.44360499       9.49774136      -0.00004507      -0.00018355       0.00012545
Zr       7.02824286       9.26538533      11.32312023      -0.00010364      -0.00038837      -0.00003746
Zr       8.69874759       6.64444564      10.81163635       0.00010810       0.00024154       0.00014000
Zr       9.31069937       6.46650390       7.72723045      -0.00019193      -0.00008241      -0.00023314
Zr      11.28011619       7.51797567       9.66520680      -0.00018721       0.00026851       0.00003766
Zr       9.30755564      11.34951266       7.53617097      -0.00010108       0.00009073       0.00012347
Zr       6.60721400      10.70689283       8.55458084       0.00035551       0.00008128      -0.00018175
Zr       8.73063570      11.51738493      10.44548762      -0.00006751       0.00010091      -0.00008134
Zr       9.94981146       9.14933651      11.76114527      -0.00026244       0.00004444       0.00029031
Zr       8.67846230       8.86388100       9.07149724       0.00049762       0.00001322       0.00043340
13
Lattice="30.0 0.0 0.0 0.0 30.0 0.0 0.0 0.0 30.0" Properties=species:S:1:pos:R:3:forces:R:3 config_type=qcd dft_energy=-89.30414274 gap_energy=-89.42757095596782 relaxed_gap_energy=-89.50117913646326 energy=-89.50117913646326 free_energy=-89.50117913646326 pbc="T T T"
Zr       9.42187809       9.42194332       9.42192312       0.00023883       0.00019309       0.00011823
Zr       9.50555690      10.94955988      11.85693413       0.00011027      -0.00024946      -0.00005949
Zr       9.45356352       7.92633510      11.87790276       0.00002672      -0.00005251       0.00026770
Zr       9.39037958      10.91756056       6.96597124      -0.00037942      -0.00012220      -0.00029495
Zr       9.33830689       7.89427529       6.98695916      -0.00001960       0.00040301      -0.00033327
Zr      10.97523325      11.84149375       9.36951035      -0.00007136      -0.00002132       0.00010253
Zr      10.89108297       6.94986336       9.40346448      -0.00006747      -0.00006794       0.00008480
Zr       7.95273312      11.89401769       9.44040594       0.00041719      -0.00019419      -0.00005249
Zr       7.86864363       7.00239512       9.47434819      -0.00017455      -0.00036950       0.00010998
Zr      11.90273205       9.38931024      10.87596031       0.00002824       0.00026094       0.00010137
Zr      11.83149176       9.36955648       7.85315589       0.00017499       0.00004693       0.00016094
Zr       7.01235226       9.47426150      10.99073249      -0.00004588       0.00019155      -0.00030405
Zr       6.94115543       9.45453722       7.96784145      -0.00023796      -0.00001842       0.00009870
14
Lattice="30.0 0.0 0.0 0.0 30.0 0.0 0.0 0.0 30.0" Properties=species:S:1:pos:R:3:forces:R:3 config_type=qcd dft_energy=-96.80866928 gap_energy=-96.14311680824498 relaxed_gap_energy=-96.5901215615559 energy=-96.5901215615559 free_energy=-96.5901215615559 pbc="T T T"
Zr      11.52691941       7.70415097       8.26788889      -0.00040434      -0.00003511       0.00002730
Zr      10.52911257       7.87914730      11.38413709       0.00009216      -0.00021176       0.00004662
Zr       9.07250518       8.44430011       6.64271877       0.00010877       0.00004138       0.00056611
Zr      12.20816694      10.01462912       9.95391534       0.00012667      -0.00003469      -0.00010044
Zr      10.15587138      10.94868261      11.80820065       0.00008714      -0.00009105       0.00001408
Zr       9.41433935       9.41677569       9.40303813       0.00031759      -0.00050652      -0.00047679
Zr       7.68790187      11.66978352      10.19512751      -0.00037313       0.00008503       0.00019977
Zr      10.38344296      12.27813059       9.20547169      -0.00001256       0.00032283      -0.00064407
Zr       9.00026856       6.49579473       8.69881124       0.00004270       0.00079137       0.00024189
Zr      11.19281086      10.40151228       7.15955842       0.00040238       0.00015613       0.00039888
Zr       8.29642505      11.16485362       7.36324264      -0.00002278       0.00014262      -0.00019891
Zr       7.68217705       6.99200604      10.94191294      -0.00019137      -0.00032417       0.00014421
Zr       7.75990163       9.44210275      11.94493131       0.00010584      -0.00028918      -0.00024148
Zr       6.80702922       8.86500265       8.74791742      -0.00027908      -0.00004690       0.00002284
15
Lattice="30.0 0.0 0.0 0.0 30.0 0.0 0.0 0.0 30.0" Properties=species:S:1:pos:R:3:forces:R:3 config_type=qcd dft_energy=-104.9617463 gap_energy=-105.02706174075936 relaxed_gap_energy=-105.1669628837297 energy=-105.1669628837297 free_energy=-105.1669628837297 pbc="T T T"
Zr       7.38972265       8.88891016       7.21660036       0.00016956      -0.00012079       0.00053888
Zr       7.84452451      11.68028748       8.09087537      -0.00011838      -0.00045674       0.00023688
Zr       8.10218873       7.03366854       9.63910173       0.00032540       0.00020803      -0.00021539
Zr       6.38937387       9.65686177       9.68811031       0.00022329       0.00015790      -0.00050581
Zr       9.43188934       9.43192413       9.43191451       0.00038399       0.00002640      -0.00029280
Zr       8.08484714      11.78545926      10.85307095       0.00024547      -0.00010184      -0.00049689
Zr       9.80662741       7.53522793       7.05802867      -0.00047879       0.00048682       0.00023088
Zr       9.81725773      10.45530933       6.57231039       0.00034760      -0.00024751       0.00017294
Zr      11.22310452       6.94966096       9.37083816      -0.00068964       0.00061779      -0.00035771
Zr      10.76157574      11.83024960       9.22457511      -0.00027386      -0.00043231       0.00041295
Zr      10.22264406       7.71772005      11.84217749       0.00040705      -0.00037036      -0.00017408
Zr      10.29803725      10.66569266      12.09660425      -0.00013258       0.00075114       0.00015735
Zr      12.27088167       9.44097326      10.57806409      -0.00037771       0.00002814       0.00012424
Zr      12.03052771       9.33578979       7.81596455      -0.00025401      -0.00033365       0.00012272
Zr       7.80586019       9.07132760      12.00082656       0.00022264      -0.00021302       0.00004585
16
Lattice="18.2913553187741 0.0 0.0 0.0 18.2913553187741 0.0 0.0 0.0 18.2913553187741" Properties=species:S:1:pos:R:3:forces:R:3 config_type=qcd dft_energy=-112.51713628 gap_energy=-112.67623644980182 relaxed_gap_energy=-112.80427341853095 energy=-112.80427341853095 free_energy=-112.80427341853095 pbc="T T T"
Zr      11.19981802      12.86676266       9.67447263       0.00014719      -0.00024964      -0.00005319
Zr      12.09102666      11.20387510      11.75148773      -0.00049159       0.00013919       0.00024076
Zr      12.54429448      10.34030805       8.77453471       0.00008925      -0.00033271      -0.00008087
Zr      10.07319406      11.68251118       7.39370359       0.00057455      -0.00029650       0.00008398
Zr       9.55180057      12.37697771      11.97334442      -0.00016504      -0.00062192       0.00035536
Zr      12.32024432       8.58138590      11.35751593       0.00015701       0.00009688      -0.00047715
Zr       8.35161587      12.66162268       9.38108943      -0.00078453       0.00030472       0.00039900
Zr      10.30278011       9.06004452       6.99953220       0.00030857       0.00013880       0.00001983
Zr      11.67197344       7.47117743       8.86351615       0.00000522      -0.00023994      -0.00038755
Zr       9.93698634       9.93726768       9.93743797       0.00007901      -0.00003668       0.00036927
Zr       7.30264354      10.85922656      11.25844954       0.00008599      -0.00013773      -0.00016490
Zr      10.02360812       6.98119463      11.16217909       0.00053201       0.00019984       0.00037262
Zr       9.67677759       9.48805757      12.77347984       0.00041745       0.00063267       0.00027637
Zr       7.58919868       9.98330828       8.26476355      -0.00025133      -0.00015858      -0.00089095
Zr       8.82374648       7.26594911       8.56991163      -0.00078142       0.00010677       0.00008379
Zr       7.53200193       8.23647381      10.86408213       0.00007766       0.00045481      -0.00014638
17
Lattice="19.88438813719154 0.0 0.0 0.0 19.88438813719154 0.0 0.0 0.0 19.88438813719154" Properties=species:S:1:pos:R:3:forces:R:3 config_type=qcd dft_energy=-120.34802055 gap_energy=-120.62097695319076 relaxed_gap_energy=-120.79390960029406 energy=-120.79390960029406 free_energy=-120.79390960029406 pbc="T T T"
Zr      13.88931723      11.73530384      11.03711044       0.00029737      -0.00009914      -0.00021846
Zr      13.05122836      10.00184657       8.68175136       0.00061868      -0.00030196       0.00025962
Zr      13.33755364       8.74582263      11.15174028      -0.00011636      -0.00009958      -0.00087755
Zr      12.89069491      10.11490338      13.41027905      -0.00013558       0.00027601       0.00003673
Zr      11.20836337       8.07400783       9.48579332       0.00016188      -0.00058929       0.00017207
Zr      10.11779176      10.54522618       8.08642523       0.00005653       0.00006993      -0.00030240
Zr      12.13981279      12.79471021      13.28908322      -0.00006331      -0.00019745       0.00032365
Zr      12.32925305      12.57867704       8.56527085      -0.00016860       0.00029671       0.00013119
Zr      11.86465775      14.00245104      10.91402782      -0.00032699       0.00023013       0.00003810
Zr       8.71409361       8.79689244      10.14249112      -0.00008853       0.00034470       0.00026896
Zr      10.62487607       8.32040808      12.46128219      -0.00014715      -0.00033451       0.00009242
Zr       9.73541224      13.33061867       9.24829666       0.00009343      -0.00002372      -0.00027420
Zr      10.29681506      10.86678766      14.09310888       0.00025782       0.00014180       0.00033998
Zr       9.29482267      13.06710991      12.24673405       0.00000146       0.00028435       0.00036208
Zr      10.98182510      10.91695948      10.95790309      -0.00051379       0.00022788      -0.00008978
Zr       8.24942137      10.22067191      12.49125433      -0.00003508      -0.00004175       0.00013461
Zr       7.96317476      11.47673726      10.02149861       0.00010823      -0.00018412      -0.00039702
18
Lattice="18.98906904456707 0.0 0.0 0.0 18.98906904456707 0.0 0.0 0.0 18.98906904456707" Properties=species:S:1:pos:R:3:forces:R:3 config_type=qcd dft_energy=-127.22795967 gap_energy=-126.5838357310567 relaxed_gap_energy=-127.54749735927396 energy=-127.54749735927396 free_energy=-127.54749735927396 pbc="T T T"
Zr      13.48322191      10.08163045      11.54310257       0.00040614      -0.00032115       0.00048574
Zr      13.40609735      11.45369836       9.35709588      -0.00027314       0.00005691      -0.00016862
Zr      11.71408036      10.77105121       7.30404103       0.00004067       0.00002545       0.00019747
Zr      12.48908520       8.47457747       9.11503657      -0.00048801      -0.00006172       0.00025496
Zr       9.99531508       8.71356096       7.55276716      -0.00059794      -0.00005467      -0.00021449
Zr      11.29154009      13.11154978       8.78794076      -0.00001160      -0.00026921      -0.00002056
Zr      11.74196689      12.61096904      11.73770469      -0.00008827      -0.00021320      -0.00003052
Zr      11.49005902      10.27853241      13.44466446       0.00027244       0.00050901       0.00022110
Zr      11.93363355       7.82141443      11.88674189       0.00048725      -0.00018695      -0.00016971
Zr      10.36052254      10.28319861      10.33590090      -0.00021747      -0.00012797       0.00014870
Zr       9.67568149       7.31950075      10.13555989       0.00049618       0.00033488       0.00034004
Zr       9.48041975       8.43825591      12.99525005       0.00014973      -0.00001104       0.00018356
Zr       7.63191855       9.09507427       8.78511850       0.00009693       0.00015291      -0.00057627
Zr       9.17262038      13.27002255      10.44143366      -0.00048592      -0.00000947      -0.00003515
Zr       8.90830572      11.60818273       7.83227480      -0.00010984      -0.00000948       0.00033657
Zr       8.92913312      11.45627383      12.75813973       0.00024817      -0.00043096      -0.00003683
Zr       7.43566368       9.00253488      11.52316699       0.00000273       0.00009302      -0.00053156
Zr       7.20938263      11.43550746      10.26895643       0.00007191       0.00052366      -0.00038442
19
Lattice="19.38258421516928 0.0 0.0 0.0 19.38258421516928 0.0 0.0 0.0 19.38258421516928" Properties=species:S:1:pos:R:3:forces:R:3 config_type=qcd dft_energy=-134.24276827 gap_energy=-133.06443283466672 relaxed_gap_energy=-133.22669253364558 energy=-133.22669253364558 free_energy=-133.22669253364558 pbc="T T T"
Zr      13.98527909      12.53456541      10.52888309      -0.00035028      -0.00018270      -0.00021758
Zr      12.01374523      13.12302497       8.49139538       0.00008342      -0.00008490       0.00007102
Zr      13.53388698      10.52967435       8.31193184      -0.00010554      -0.00034463       0.00014457
Zr      12.87071836      11.59246267      13.02934395       0.00009810       0.00007139      -0.00015461
Zr      14.06760602       9.57504397      11.14068137      -0.00021696       0.00009950       0.00011576
Zr      10.32003843      10.43340402       7.62146295      -0.00045786       0.00063321       0.00013512
Zr      10.74263035      13.45361451      11.45007669       0.00014634      -0.00020655       0.00021877
Zr       9.24062011      12.83796564       9.01186861      -0.00007512      -0.00000307       0.00000456
Zr      11.69389757      10.98659787      10.43917148       0.00042205       0.00022321      -0.00012495
Zr       7.81123932      12.05171503      11.53124484       0.00006936      -0.00033078       0.00013819
Zr      10.06681236      11.36341212      13.38815596      -0.00026717      -0.00015650      -0.00041568
Zr       7.40511435      10.76854197       8.54230841       0.00001583       0.00004285       0.00003308
Zr       9.37795867       9.98401778      10.53899254       0.00070209       0.00052633      -0.00009522
Zr      11.26995063       8.73902533      12.65425245       0.00007325       0.00013161      -0.00012950
Zr       8.61369512       8.08131424       8.46932799       0.00020184      -0.00002259      -0.00048105
Zr      11.50433140       8.10515587       9.50099527       0.00034821      -0.00027170       0.00050557
Zr       8.27075881       9.22367391      13.12551844       0.00007213       0.00024644       0.00003814
Zr       6.74714670       8.93166331      10.68133854      -0.00087851      -0.00015796      -0.00002389
Zr       9.13115829       7.15903196      11.20590328       0.00011881      -0.00021317       0.00023769
19
Lattice="19.66103874996165 0.0 0.0 0.0 19.66103874996165 0.0 0.0 0.0 19.66103874996165" Properties=species:S:1:pos:R:3:forces:R:3 config_type=qcd dft_energy=-134.23076359 gap_energy=-133.84559432543458 relaxed_gap_energy=-134.75309299528297 energy=-134.75309299528297 free_energy=-134.75309299528297 pbc="T T T"
Zr      13.54891854      10.01512599       9.53320616       0.00041649       0.00033114      -0.00005500
Zr      13.14939258      10.14098348      12.59747527      -0.00016592       0.00003420      -0.00005417
Zr      13.40430099      12.54969135      11.06886460       0.00057583       0.00031906      -0.00049756
Zr      12.36552827       7.81383481      10.93218653      -0.00028936      -0.00019788       0.00025947
Zr      11.25166831       8.23705156       8.51080173      -0.00022688      -0.00008284      -0.00009285
Zr      11.62616227      12.77267497      13.08656727       0.00027576      -0.00019067       0.00027499
Zr      12.62228546      12.72426305       8.55982444       0.00024115       0.00012665       0.00015458
Zr      10.95706228       8.12864428      13.13538040      -0.00036651       0.00044713       0.00046883
Zr      10.60843672      10.62777050      14.22705991       0.00016641      -0.00041360      -0.00003998
Zr      11.55972269      10.54050074       7.27135686       0.00015275      -0.00045272      -0.00035593
Zr      10.69694150      10.67052908      10.69511513      -0.00001987      -0.00001536       0.00015889
Zr       9.30648830       7.84811176      10.57696772       0.00008304      -0.00007237      -0.00010555
Zr      10.63539492      13.81745551      10.61053463      -0.00045511       0.00025962       0.00026298
Zr       8.47778736       9.31604306      13.08771614       0.00053220      -0.00046828       0.00043824
Zr       9.95621967      12.68643425       7.88937602      -0.00006552       0.00017521       0.00006903
Zr       8.74623278      12.31264140      12.54229654      -0.00047874      -0.00000906      -0.00022600
Zr       8.79540117       9.88926221       8.31042007      -0.00029277      -0.00027886      -0.00036957
Zr       7.42648911      10.13115432      10.81468168      -0.00015298       0.00033965      -0.00037404
Zr       8.10743943      12.51911487       9.75782106       0.00007003       0.00014896       0.00008365
19
Lattice="19.61155961442794 0.0 0.0 0.0 19.61155961442794 0.0 0.0 0.0 19.61155961442794" Properties=species:S:1:pos:R:3:forces:R:3 config_type=qcd dft_energy=-134.19854713 gap_energy=-133.6440432751272 relaxed_gap_energy=-134.32106806381736 energy=-134.32106806381736 free_energy=-134.32106806381736 pbc="T T T"
Zr      11.03767002      10.79417200       6.93527043       0.00007509      -0.00011032      -0.00024994
Zr       7.84920763       7.50184458       8.03409118       0.00013587      -0.00019708       0.00030112
Zr       8.21478032      10.10361402       7.05861974      -0.00001610       0.00011319       0.00004237
Zr      10.75637212       8.05268988       7.47484976      -0.00011331      -0.00005108      -0.00003632
Zr       6.36626495       9.44756979       9.36653110       0.00006563      -0.00003243       0.00036772
Zr       9.26351217      12.71184589       7.97911244      -0.00016719      -0.00019435      -0.00014057
Zr      12.85356703       9.79163102       8.98834191      -0.00007410       0.00047647      -0.00030915