54
Lattice="9.784817403 0.0 0.0 0.0 9.784817403 0.0 -0.0 -0.0 9.784817403" Properties=species:S:1:pos:R:3:forces:R:3 config_type=bcc stress="-1.766347082624962e-06 -0.0 -0.0 -0.0 -1.766347082624962e-06 0.0 -0.0 0.0 -1.766347082624962e-06" free_energy=-145.03119384 energy=-145.03119384 pbc="T T T"
Ag       0.00000000       0.00000000       0.00000000       0.00000000       0.00000000      -0.00000000
Ag       4.89241000       4.89241000       8.15401000       0.00000000      -0.00000000      -0.00000000
Ag       3.26161000       6.52321000       0.00000000      -0.00000000      -0.00000000       0.00000000
Ag       4.89241000       8.15401000       1.63080000      -0.00000000      -0.00000000       0.00000000
Ag       3.26161000       6.52321000       3.26161000      -0.00000000       0.00000000       0.00000000
Ag       4.89241000       8.15401000       4.89241000       0.00000000      -0.00000000      -0.00000000
Ag       3.26161000       6.52321000       6.52321000       0.00000000       0.00000000      -0.00000000
Ag       4.89241000       8.15401000       8.15401000       0.00000000      -0.00000000      -0.00000000
Ag       6.52321000       0.00000000       0.00000000       0.00000000      -0.00000000      -0.00000000
Ag       8.15401000       1.63080000       1.63080000      -0.00000000      -0.00000000      -0.00000000
Ag       6.52321000      -0.00000000       3.26161000      -0.00000000      -0.00000000       0.00000000
Ag       8.15401000       1.63080000       4.89241000       0.00000000       0.00000000       0.00000000
Ag       6.52321000      -0.00000000       6.52321000       0.00000000       0.00000000      -0.00000000
Ag       8.15401000       1.63080000       8.15401000       0.00000000       0.00000000       0.00000000
Ag       6.52321000       3.26161000       0.00000000      -0.00000000      -0.00000000      -0.00000000
Ag       8.15401000       4.89241000       1.63080000       0.00000000       0.00000000      -0.00000000
Ag       6.52321000       3.26161000       3.26161000      -0.00000000       0.00000000      -0.00000000
Ag       8.15401000       4.89241000       4.89241000      -0.00000000      -0.00000000      -0.00000000
Ag       6.52321000       3.26161000       6.52321000       0.00000000      -0.00000000       0.00000000
Ag       8.15401000       4.89241000       8.15401000      -0.00000000       0.00000000       0.00000000
Ag       6.52321000       6.52321000       0.00000000      -0.00000000      -0.00000000       0.00000000
Ag       8.15401000       8.15401000       1.63080000      -0.00000000       0.00000000      -0.00000000
Ag       6.52321000       6.52321000       3.26161000       0.00000000      -0.00000000      -0.00000000
Ag       8.15401000       8.15401000       4.89241000       0.00000000      -0.00000000      -0.00000000
Ag       3.26161000       3.26161000       6.52321000      -0.00000000      -0.00000000       0.00000000
Ag       4.89241000       4.89241000       4.89241000       0.00000000       0.00000000       0.00000000
Ag       3.26161000       3.26161000       3.26161000       0.00000000      -0.00000000       0.00000000
Ag       4.89241000       4.89241000       1.63080000       0.00000000       0.00000000       0.00000000
Ag       1.63080000       1.63080000       1.63080000      -0.00000000      -0.00000000      -0.00000000
Ag      -0.00000000      -0.00000000       3.26161000      -0.00000000       0.00000000      -0.00000000
Ag       1.63080000       1.63080000       4.89241000       0.00000000       0.00000000       0.00000000
Ag      -0.00000000      -0.00000000       6.52321000       0.00000000      -0.00000000       0.00000000
Ag       1.63080000       1.63080000       8.15401000       0.00000000      -0.00000000       0.00000000
Ag       0.00000000       3.26161000       0.00000000       0.00000000       0.00000000       0.00000000
Ag       1.63080000       4.89241000       1.63080000       0.00000000      -0.00000000       0.00000000
Ag      -0.00000000       3.26161000       3.26161000       0.00000000       0.00000000      -0.00000000
Ag       1.63080000       4.89241000       4.89241000      -0.00000000       0.00000000       0.00000000
Ag      -0.00000000       3.26161000       6.52321000       0.00000000       0.00000000       0.00000000
Ag       1.63080000       4.89241000       8.15401000       0.00000000       0.00000000      -0.00000000
Ag       6.52321000       6.52321000       6.52321000      -0.00000000      -0.00000000      -0.00000000
Ag       0.00000000       6.52321000       0.00000000       0.00000000      -0.00000000       0.00000000
Ag      -0.00000000       6.52321000       3.26161000      -0.00000000       0.00000000       0.00000000
Ag       1.63080000       8.15401000       4.89241000       0.00000000      -0.00000000      -0.00000000
Ag      -0.00000000       6.52321000       6.52321000       0.00000000       0.00000000      -0.00000000
Ag       1.63080000       8.15401000       8.15401000      -0.00000000       0.00000000      -0.00000000
Ag       3.26161000      -0.00000000       0.00000000      -0.00000000       0.00000000       0.00000000
Ag       4.89241000       1.63080000       1.63080000      -0.00000000      -0.00000000       0.00000000
Ag       3.26161000      -0.00000000       3.26161000       0.00000000      -0.00000000      -0.00000000
Ag       4.89241000       1.63080000       4.89241000      -0.00000000       0.00000000       0.00000000
Ag       3.26161000      -0.00000000       6.52321000       0.00000000       0.00000000      -0.00000000
Ag       4.89241000       1.63080000       8.15401000       0.00000000      -0.00000000      -0.00000000
Ag       3.26161000       3.26161000       0.00000000      -0.00000000       0.00000000       0.00000000
Ag       1.63080000       8.15401000       1.63080000      -0.00000000       0.00000000      -0.00000000
Ag       8.15401000       8.15401000       8.15401000       0.00000000      -0.00000000      -0.00000000
108
Lattice="8.823536055 0.0 -0.0 -4.411768028 7.641407004 0.0 -0.0 0.0 27.938945158" Properties=species:S:1:pos:R:3:forces:R:3 config_type=hcp stress="-3.975841313187635e-06 -0.0 -0.0 -0.0 -3.975841313187635e-06 -0.0 -0.0 -0.0 1.8724527377649774e-08" free_energy=-287.92868845 energy=-287.92868845 pbc="T T T"
Ag       0.00000000      -0.00000000       4.65649000       0.00000000       0.00000000      -0.00000000
Ag       5.88236000       0.00000000       9.31298000       0.00000000       0.00000000      -0.00000000
Ag       7.35295000       0.84904000      16.29772000       0.00000000       0.00000000       0.00000000
Ag       5.88236000       0.00000000      13.96947000       0.00000000       0.00000000      -0.00000000
Ag       5.88236000       1.69809000       2.32825000      -0.00000000      -0.00000000      -0.00000000
Ag       5.88236000       0.00000000      -0.00000000       0.00000000       0.00000000      -0.00000000
Ag       7.35295000       0.84904000       6.98474000       0.00000000       0.00000000       0.00000000
Ag       5.88236000       0.00000000       4.65649000       0.00000000       0.00000000       0.00000000
Ag      -0.00000000       6.79236000      20.95421000      -0.00000000      -0.00000000       0.00000000
Ag       0.00000000       5.09427000      18.62596000       0.00000000       0.00000000      -0.00000000
Ag       1.47059000       5.94332000      25.61070000       0.00000000      -0.00000000       0.00000000
Ag       0.00000000       5.09427000      23.28245000       0.00000000       0.00000000       0.00000000
Ag      -0.00000000       6.79236000      11.64123000      -0.00000000      -0.00000000       0.00000000
Ag       0.00000000       5.09427000       9.31298000       0.00000000       0.00000000      -0.00000000
Ag       1.47059000       5.94332000      16.29772000       0.00000000       0.00000000       0.00000000
Ag       0.00000000       5.09427000      13.96947000       0.00000000       0.00000000      -0.00000000
Ag      -0.00000000       6.79236000       2.32825000      -0.00000000      -0.00000000       0.00000000
Ag       0.00000000       5.09427000       0.00000000       0.00000000       0.00000000      -0.00000000
Ag       1.47059000       5.94332000       6.98474000       0.00000000       0.00000000       0.00000000
Ag       0.00000000       5.09427000       4.65649000       0.00000000       0.00000000      -0.00000000
Ag       1.47059000       4.24523000      20.95421000      -0.00000000      -0.00000000       0.00000000
Ag       1.47059000       2.54714000      18.62596000       0.00000000       0.00000000       0.00000000
Ag       2.94118000       3.39618000      25.61070000       0.00000000      -0.00000000       0.00000000
Ag       1.47059000       2.54714000      23.28245000       0.00000000       0.00000000      -0.00000000
Ag       5.88236000       1.69809000      11.64123000      -0.00000000      -0.00000000      -0.00000000
Ag       1.47059000       4.24523000      11.64123000      -0.00000000       0.00000000       0.00000000
Ag       5.88236000       0.00000000      23.28245000       0.00000000       0.00000000      -0.00000000
Ag       5.88236000       0.00000000      18.62596000       0.00000000       0.00000000       0.00000000
Ag       4.41177000       5.94332000      25.61070000       0.00000000      -0.00000000      -0.00000000
Ag       2.94118000       5.09427000      23.28245000       0.00000000       0.00000000      -0.00000000
Ag       2.94118000       6.79236000      11.64123000      -0.00000000      -0.00000000       0.00000000
Ag       2.94118000       5.09427000       9.31298000       0.00000000       0.00000000       0.00000000
Ag       4.41177000       5.94332000      16.29772000       0.00000000       0.00000000      -0.00000000
Ag       2.94118000       5.09427000      13.96947000       0.00000000       0.00000000       0.00000000
Ag       2.94118000       6.79236000       2.32825000      -0.00000000      -0.00000000       0.00000000
Ag       2.94118000       5.09427000      -0.00000000       0.00000000       0.00000000      -0.00000000
Ag       4.41177000       5.94332000       6.98474000       0.00000000       0.00000000      -0.00000000
Ag       2.94118000       5.09427000       4.65649000       0.00000000       0.00000000       0.00000000
Ag       4.41177000       4.24523000      20.95421000      -0.00000000      -0.00000000       0.00000000
Ag       4.41177000       2.54714000      18.62596000       0.00000000       0.00000000      -0.00000000
Ag       5.88236000       3.39618000      25.61070000       0.00000000       0.00000000       0.00000000
Ag       4.41177000       2.54714000      23.28245000       0.00000000       0.00000000       0.00000000
Ag       4.41177000       4.24523000      11.64123000      -0.00000000      -0.00000000      -0.00000000
Ag       4.41177000       2.54714000       9.31298000       0.00000000       0.00000000      -0.00000000
Ag       5.88236000       3.39618000      16.29772000       0.00000000       0.00000000       0.00000000
Ag       4.41177000       2.54714000      13.96947000       0.00000000       0.00000000      -0.00000000
Ag       4.41177000       4.24523000       2.32825000      -0.00000000      -0.00000000       0.00000000
Ag       4.41177000       2.54714000      -0.00000000       0.00000000       0.00000000      -0.00000000
Ag       5.88236000       3.39618000       6.98474000       0.00000000       0.00000000       0.00000000
Ag       4.41177000       2.54714000       4.65649000       0.00000000       0.00000000       0.00000000
Ag       5.88236000       1.69809000      20.95421000      -0.00000000       0.00000000      -0.00000000
Ag       7.35295000       0.84904000      25.61070000       0.00000000       0.00000000       0.00000000
Ag       1.47059000       2.54714000       9.31298000       0.00000000       0.00000000       0.00000000
Ag       2.94118000       3.39618000      16.29772000       0.00000000       0.00000000      -0.00000000
Ag       1.47059000       2.54714000      13.96947000       0.00000000       0.00000000      -0.00000000
Ag      -1.47059000       4.24523000      20.95421000      -0.00000000      -0.00000000      -0.00000000
Ag      -1.47059000       2.54714000      18.62596000       0.00000000       0.00000000      -0.00000000
Ag       0.00000000       3.39618000      25.61070000       0.00000000      -0.00000000      -0.00000000
Ag      -1.47059000       2.54714000      23.28245000       0.00000000       0.00000000      -0.00000000
Ag      -1.47059000       4.24523000      11.64123000      -0.00000000       0.00000000      -0.00000000
Ag      -1.47059000       2.54714000       9.31298000       0.00000000       0.00000000      -0.00000000
Ag       0.00000000       3.39618000      16.29772000       0.00000000       0.00000000       0.00000000
Ag      -1.47059000       2.54714000      13.96947000       0.00000000       0.00000000       0.00000000
Ag      -1.47059000       4.24523000       2.32825000      -0.00000000       0.00000000      -0.00000000
Ag      -1.47059000       2.54714000       0.00000000       0.00000000       0.00000000      -0.00000000
Ag       0.00000000       3.39618000       6.98474000       0.00000000       0.00000000       0.00000000
Ag      -1.47059000       2.54714000       4.65649000       0.00000000       0.00000000       0.00000000
Ag      -0.00000000       1.69809000      20.95421000      -0.00000000      -0.00000000      -0.00000000
Ag       0.00000000      -0.00000000      18.62596000       0.00000000       0.00000000       0.00000000
Ag       1.47059000       0.84904000      25.61070000       0.00000000       0.00000000      -0.00000000
Ag       0.00000000      -0.00000000      23.28245000       0.00000000       0.00000000      -0.00000000
Ag      -0.00000000       1.69809000      11.64123000      -0.00000000      -0.00000000      -0.00000000
Ag       0.00000000      -0.00000000       9.31298000       0.00000000       0.00000000      -0.00000000
Ag       1.47059000       0.84904000      16.29772000       0.00000000       0.00000000       0.00000000
Ag       0.00000000      -0.00000000      13.96947000       0.00000000       0.00000000      -0.00000000
Ag      -0.00000000       1.69809000       2.32825000      -0.00000000      -0.00000000       0.00000000
Ag       0.00000000      -0.00000000      -0.00000000       0.00000000       0.00000000      -0.00000000
Ag       1.47059000       0.84904000       6.98474000       0.00000000       0.00000000      -0.00000000
Ag      -2.94118000       5.09427000       4.65649000       0.00000000       0.00000000       0.00000000
Ag      -1.47059000       5.94332000       6.98474000       0.00000000       0.00000000       0.00000000
Ag      -2.94118000       5.09427000       0.00000000       0.00000000       0.00000000      -0.00000000
Ag      -2.94118000       6.79236000       2.32825000      -0.00000000      -0.00000000       0.00000000
Ag       1.47059000       4.24523000       2.32825000      -0.00000000       0.00000000       0.00000000
Ag       1.47059000       2.54714000      -0.00000000       0.00000000       0.00000000       0.00000000
Ag       2.94118000       3.39618000       6.98474000       0.00000000       0.00000000      -0.00000000
Ag       1.47059000       2.54714000       4.65649000       0.00000000       0.00000000      -0.00000000
Ag       2.94118000       1.69809000      20.95421000      -0.00000000      -0.00000000       0.00000000
Ag       2.94118000       0.00000000      18.62596000       0.00000000       0.00000000      -0.00000000
Ag       4.41177000       0.84904000      25.61070000       0.00000000       0.00000000       0.00000000
Ag       2.94118000       0.00000000      23.28245000       0.00000000       0.00000000      -0.00000000
Ag       2.94118000       1.69809000      11.64123000      -0.00000000       0.00000000      -0.00000000
Ag       2.94118000       0.00000000       9.31298000       0.00000000       0.00000000       0.00000000
Ag       4.41177000       0.84904000      16.29772000       0.00000000       0.00000000       0.00000000
Ag       2.94118000       5.09427000      18.62596000       0.00000000       0.00000000      -0.00000000
Ag       2.94118000       0.00000000      13.96947000       0.00000000       0.00000000      -0.00000000
Ag       2.94118000       0.00000000      -0.00000000       0.00000000       0.00000000      -0.00000000
Ag       4.41177000       0.84904000       6.98474000       0.00000000       0.00000000       0.00000000
Ag       2.94118000       0.00000000       4.65649000       0.00000000       0.00000000      -0.00000000
Ag      -2.94118000       6.79236000      20.95421000      -0.00000000      -0.00000000      -0.00000000
Ag      -2.94118000       5.09427000      18.62596000       0.00000000       0.00000000      -0.00000000
Ag      -1.47059000       5.94332000      25.61070000       0.00000000      -0.00000000      -0.00000000
Ag      -2.94118000       5.09427000      23.28245000       0.00000000       0.00000000      -0.00000000
Ag      -2.94118000       6.79236000      11.64123000      -0.00000000      -0.00000000      -0.00000000
Ag      -2.94118000       5.09427000       9.31298000       0.00000000       0.00000000       0.00000000
Ag      -1.47059000       5.94332000      16.29772000       0.00000000       0.00000000       0.00000000
Ag      -2.94118000       5.09427000      13.96947000       0.00000000       0.00000000       0.00000000
Ag       2.94118000       1.69809000       2.32825000      -0.00000000      -0.00000000      -0.00000000
Ag       2.94118000       6.79236000      20.95421000      -0.00000000      -0.00000000      -0.00000000
8
Lattice="6.152758964 0.0 -0.0 -0.0 6.152758964 0.0 -0.0 0.0 6.152758964" Properties=species:S:1:pos:R:3:magmoms:R:1:forces:R:3 config_type=dc magmom=0.21875 stress="6.797003438086869e-06 -0.0 -0.0 -0.0 6.797003438086869e-06 -0.0 -0.0 -0.0 6.797003438086869e-06" free_energy=-15.51414159 energy=-15.51414159 pbc="T T T"
Ag       1.53819000       4.61457000       1.53819000       0.00900000       0.00000000       0.00000000       0.00000000
Ag      -0.00000000       0.00000000       3.07638000       0.00900000       0.00000000      -0.00000000       0.00000000
Ag       1.53819000       1.53819000       4.61457000       0.00900000       0.00000000      -0.00000000      -0.00000000
Ag      -0.00000000       3.07638000       0.00000000       0.00900000      -0.00000000       0.00000000      -0.00000000
Ag       4.61457000       4.61457000       4.61457000       0.00900000      -0.00000000      -0.00000000      -0.00000000
Ag       3.07638000       0.00000000      -0.00000000       0.00900000      -0.00000000       0.00000000      -0.00000000
Ag       4.61457000       1.53819000       1.53819000       0.00900000       0.00000000      -0.00000000       0.00000000
Ag       3.07638000       3.07638000       3.07638000       0.00900000       0.00000000       0.00000000       0.00000000
108
Lattice="12.317143609 0.0 0.0 -0.0 12.317143609 -0.0 0.0 0.0 12.317143609" Properties=species:S:1:pos:R:3:forces:R:3 config_type=fcc stress="-1.4105810624496163e-06 -0.0 0.0 -0.0 -1.4105810624496163e-06 -0.0 0.0 -0.0 -1.4105810624496163e-06" free_energy=-292.78792699 energy=-292.78792699 pbc="T T T"
Ag       0.00000000      -0.00000000       0.00000000      -0.00000000       0.00000000      -0.00000000
Ag      10.26429000       0.00000000       6.15857000      -0.00000000       0.00000000       0.00000000
Ag       8.21143000       2.05286000       6.15857000      -0.00000000       0.00000000       0.00000000
Ag       8.21143000       0.00000000       4.10571000      -0.00000000       0.00000000      -0.00000000
Ag      10.26429000       2.05286000       0.00000000       0.00000000      -0.00000000       0.00000000
Ag      10.26429000       0.00000000       2.05286000      -0.00000000       0.00000000      -0.00000000
Ag       8.21143000       2.05286000       2.05286000      -0.00000000      -0.00000000       0.00000000
Ag       8.21143000      -0.00000000       0.00000000       0.00000000      -0.00000000      -0.00000000
Ag       6.15857000      10.26429000       8.21143000      -0.00000000       0.00000000       0.00000000
Ag       6.15857000       8.21143000      10.26429000       0.00000000      -0.00000000       0.00000000
Ag       4.10571000      10.26429000      10.26429000       0.00000000      -0.00000000      -0.00000000
Ag       4.10571000       8.21143000       8.21143000       0.00000000      -0.00000000       0.00000000
Ag       6.15857000      10.26429000       4.10571000       0.00000000      -0.00000000       0.00000000
Ag       6.15857000       8.21143000       6.15857000      -0.00000000       0.00000000       0.00000000
Ag       4.10571000      10.26429000       6.15857000      -0.00000000       0.00000000       0.00000000
Ag       4.10571000       8.21143000       4.10571000       0.00000000      -0.00000000      -0.00000000
Ag       6.15857000      10.26429000      -0.00000000       0.00000000      -0.00000000       0.00000000
Ag       6.15857000       8.21143000       2.05286000       0.00000000      -0.00000000      -0.00000000
Ag       4.10571000      10.26429000       2.05286000       0.00000000      -0.00000000      -0.00000000
Ag       4.10571000       8.21143000      -0.00000000       0.00000000       0.00000000      -0.00000000
Ag       6.15857000       6.15857000       8.21143000      -0.00000000       0.00000000       0.00000000
Ag       6.15857000       4.10571000      10.26429000       0.00000000      -0.00000000       0.00000000
Ag       4.10571000       6.15857000      10.26429000      -0.00000000      -0.00000000       0.00000000
Ag       4.10571000       4.10571000       8.21143000      -0.00000000       0.00000000       0.00000000
Ag      10.26429000       2.05286000       4.10571000      -0.00000000      -0.00000000       0.00000000
Ag       6.15857000       6.15857000       4.10571000       0.00000000      -0.00000000      -0.00000000
Ag       8.21143000       0.00000000       8.21143000      -0.00000000       0.00000000       0.00000000
Ag      10.26429000      -0.00000000      10.26429000       0.00000000      -0.00000000      -0.00000000
Ag       8.21143000      10.26429000      10.26429000       0.00000000       0.00000000      -0.00000000
Ag       8.21143000       8.21143000       8.21143000      -0.00000000       0.00000000      -0.00000000
Ag      10.26429000      10.26429000       4.10571000      -0.00000000       0.00000000      -0.00000000
Ag      10.26429000       8.21143000       6.15857000      -0.00000000       0.00000000       0.00000000
Ag       8.21143000      10.26429000       6.15857000      -0.00000000       0.00000000      -0.00000000
Ag       8.21143000       8.21143000       4.10571000       0.00000000       0.00000000       0.00000000
Ag      10.26429000      10.26429000      -0.00000000      -0.00000000       0.00000000       0.00000000
Ag      10.26429000       8.21143000       2.05286000      -0.00000000       0.00000000       0.00000000
Ag       8.21143000      10.26429000       2.05286000       0.00000000       0.00000000      -0.00000000
Ag       8.21143000       8.21143000      -0.00000000      -0.00000000       0.00000000       0.00000000
Ag      10.26429000       6.15857000       8.21143000       0.00000000      -0.00000000      -0.00000000
Ag      10.26429000       4.10571000      10.26429000       0.00000000      -0.00000000      -0.00000000
Ag       8.21143000       6.15857000      10.26429000       0.00000000       0.00000000      -0.00000000
Ag       8.21143000       4.10571000       8.21143000       0.00000000      -0.00000000       0.00000000
Ag      10.26429000       6.15857000       4.10571000       0.00000000      -0.00000000      -0.00000000
Ag      10.26429000       4.10571000       6.15857000       0.00000000      -0.00000000       0.00000000
Ag       8.21143000       6.15857000       6.15857000      -0.00000000       0.00000000       0.00000000
Ag       8.21143000       4.10571000       4.10571000       0.00000000      -0.00000000      -0.00000000
Ag      10.26429000       6.15857000       0.00000000      -0.00000000       0.00000000      -0.00000000
Ag      10.26429000       4.10571000       2.05286000       0.00000000      -0.00000000      -0.00000000
Ag       8.21143000       6.15857000       2.05286000      -0.00000000       0.00000000       0.00000000
Ag       8.21143000       4.10571000       0.00000000       0.00000000       0.00000000      -0.00000000
Ag      10.26429000       2.05286000       8.21143000       0.00000000      -0.00000000       0.00000000
Ag       8.21143000       2.05286000      10.26429000       0.00000000      -0.00000000       0.00000000
Ag       6.15857000       4.10571000       6.15857000      -0.00000000       0.00000000       0.00000000
Ag       4.10571000       6.15857000       6.15857000      -0.00000000      -0.00000000      -0.00000000
Ag       4.10571000       4.10571000       4.10571000       0.00000000      -0.00000000      -0.00000000
Ag       2.05286000       6.15857000       8.21143000      -0.00000000      -0.00000000       0.00000000
Ag       2.05286000       4.10571000      10.26429000      -0.00000000      -0.00000000      -0.00000000
Ag      -0.00000000       6.15857000      10.26429000       0.00000000      -0.00000000      -0.00000000
Ag      -0.00000000       4.10571000       8.21143000      -0.00000000      -0.00000000       0.00000000
Ag       2.05286000       6.15857000       4.10571000       0.00000000      -0.00000000      -0.00000000
Ag       2.05286000       4.10571000       6.15857000       0.00000000      -0.00000000       0.00000000
Ag      -0.00000000       6.15857000       6.15857000      -0.00000000      -0.00000000       0.00000000
Ag      -0.00000000       4.10571000       4.10571000       0.00000000      -0.00000000       0.00000000
Ag       2.05286000       6.15857000       0.00000000      -0.00000000       0.00000000       0.00000000
Ag       2.05286000       4.10571000       2.05286000       0.00000000      -0.00000000      -0.00000000
Ag       0.00000000       6.15857000       2.05286000       0.00000000      -0.00000000      -0.00000000
Ag      -0.00000000       4.10571000       0.00000000      -0.00000000      -0.00000000      -0.00000000
Ag       2.05286000       2.05286000       8.21143000      -0.00000000       0.00000000       0.00000000
Ag       2.05286000       0.00000000      10.26429000       0.00000000       0.00000000      -0.00000000
Ag       0.00000000       2.05286000      10.26429000       0.00000000      -0.00000000       0.00000000
Ag       0.00000000      -0.00000000       8.21143000      -0.00000000       0.00000000       0.00000000
Ag       2.05286000       2.05286000       4.10571000       0.00000000      -0.00000000       0.00000000
Ag       2.05286000      -0.00000000       6.15857000      -0.00000000       0.00000000       0.00000000
Ag       0.00000000       2.05286000       6.15857000       0.00000000      -0.00000000       0.00000000
Ag      -0.00000000      -0.00000000       4.10571000      -0.00000000      -0.00000000      -0.00000000
Ag       2.05286000       2.05286000      -0.00000000      -0.00000000       0.00000000      -0.00000000
Ag       2.05286000       0.00000000       2.05286000      -0.00000000       0.00000000      -0.00000000
Ag      -0.00000000       2.05286000       2.05286000       0.00000000      -0.00000000      -0.00000000
Ag      -0.00000000       8.21143000      -0.00000000      -0.00000000      -0.00000000       0.00000000
Ag      -0.00000000      10.26429000       2.05286000      -0.00000000       0.00000000       0.00000000
Ag       2.05286000       8.21143000       2.05286000       0.00000000      -0.00000000      -0.00000000
Ag       2.05286000      10.26429000      -0.00000000      -0.00000000       0.00000000      -0.00000000
Ag       6.15857000       6.15857000      -0.00000000      -0.00000000       0.00000000      -0.00000000
Ag       6.15857000       4.10571000       2.05286000      -0.00000000       0.00000000      -0.00000000
Ag       4.10571000       6.15857000       2.05286000       0.00000000      -0.00000000      -0.00000000
Ag       4.10571000       4.10571000      -0.00000000      -0.00000000       0.00000000       0.00000000
Ag       6.15857000       2.05286000       8.21143000       0.00000000      -0.00000000      -0.00000000
Ag       6.15857000       0.00000000      10.26429000       0.00000000      -0.00000000       0.00000000
Ag       4.10571000       2.05286000      10.26429000      -0.00000000       0.00000000       0.00000000
Ag       4.10571000       0.00000000       8.21143000       0.00000000      -0.00000000      -0.00000000
Ag       6.15857000       2.05286000       4.10571000       0.00000000      -0.00000000      -0.00000000
Ag       6.15857000       0.00000000       6.15857000      -0.00000000       0.00000000       0.00000000
Ag       4.10571000       2.05286000       6.15857000      -0.00000000       0.00000000       0.00000000
Ag      10.26429000       8.21143000      10.26429000      -0.00000000      -0.00000000       0.00000000
Ag       4.10571000       0.00000000       4.10571000       0.00000000      -0.00000000      -0.00000000
Ag       6.15857000      -0.00000000       2.05286000       0.00000000      -0.00000000      -0.00000000
Ag       4.10571000       2.05286000       2.05286000      -0.00000000       0.00000000       0.00000000
Ag       4.10571000       0.00000000       0.00000000       0.00000000       0.00000000       0.00000000
Ag       2.05286000      10.26429000       8.21143000       0.00000000      -0.00000000       0.00000000
Ag       2.05286000       8.21143000      10.26429000       0.00000000      -0.00000000       0.00000000
Ag      -0.00000000      10.26429000      10.26429000      -0.00000000      -0.00000000       0.00000000
Ag      -0.00000000       8.21143000       8.21143000       0.00000000      -0.00000000      -0.00000000