7
Lattice="25.0 0.0 0.0 0.0 25.0 0.0 0.0 0.0 25.0" Properties=species:S:1:pos:R:3:forces:R:3 config_type=cluster magmom=1.0013985 stress="-0.004199786660624327 -0.001280782638667748 0.0009844108193343074 -0.001280782638667748 -0.0006974824033083283 4.244226205600616e-05 0.0009844108193343074 4.244226205600616e-05 -0.0009565424810872388" free_energy=7.88852516 energy=7.88852516 pbc="T T T"
Ag       5.71898000      16.61799000       7.61555000       0.30451200      -1.67618300       1.27313300
Ag       9.96550000      20.36955000       6.94456000      41.52398400      15.05440100      -6.41049900
Ag       5.26952000      18.53849000       6.27491000      -1.18500600       0.03198500      -3.83082500
Ag       8.50307000      19.90171000       7.28497000     -40.67548300     -13.47064600       9.23799800
Ag       6.20346000      19.84479000       7.96388000      -0.59972600       1.70392800       3.06003200
Ag      10.26604000      19.42041000       4.88262000       0.83933200      -1.62882400      -3.62256400
Ag       3.08157000      18.60470000       7.60866000      -0.20761300      -0.01466200       0.29272500
7
Lattice="25.0 0.0 0.0 0.0 25.0 0.0 0.0 0.0 25.0" Properties=species:S:1:pos:R:3:forces:R:3 config_type=cluster magmom=1.001791 stress="3.872856412610562e-05 -0.00013878619692314013 0.00010053198749060164 -0.00013878619692314013 -0.00028868228009035245 -8.087123374406937e-05 0.00010053198749060164 -8.087123374406937e-05 -0.000110243775690476" free_energy=-10.10203704 energy=-10.10203704 pbc="T T T"
Ag       9.58948000      11.19036000      20.22041000       0.85936900       1.07778500      -1.50337000
Ag       8.93653000      10.96810000      23.35769000       0.23289900       1.03649000       1.88058200
Ag       8.59004000       9.41737000      21.53290000      -1.24407600      -2.84648900      -0.15638900
Ag      11.99180000      11.07062000      21.44426000       0.20014300      -0.31296000       0.13261300
Ag      11.10651000       9.47606000      24.03862000      -0.28557300       0.03027200      -0.66388700
Ag      11.02275000       8.60190000      20.94039000       0.20712200      -0.01733000       0.02287500
Ag      10.21215000      12.90222000      22.09673000       0.03011700       1.03223100       0.28757600
7
Lattice="25.0 0.0 0.0 0.0 25.0 0.0 0.0 0.0 25.0" Properties=species:S:1:pos:R:3:forces:R:3 config_type=cluster magmom=1.0014997 stress="0.00011910047714010434 3.8316624523797325e-05 6.694642688422382e-05 3.8316624523797325e-05 0.00013452324619016187 -1.599698788963879e-05 6.694642688422382e-05 -1.599698788963879e-05 7.245143793325285e-05" free_energy=-11.44110967 energy=-11.44110967 pbc="T T T"
Ag       2.61283000       5.85219000      18.14741000       0.09847400      -0.26785300      -0.35967800
Ag       4.55551000       7.55780000      16.94384000       0.25748400       0.16509100      -0.34945300
Ag       5.23204000       5.20106000      17.96596000       0.21929500      -0.30812400       0.27360100
Ag       2.00068000       7.05895000      20.37746000       0.00391200      -0.03637400       0.76336100
Ag       2.49144000       8.60378000      18.23422000      -0.16272200       0.34279900       0.07076200
Ag       3.91511000       4.76567000      20.42291000      -0.15435300       0.48364100      -0.21860300
Ag       4.72728000       7.50758000      19.76402000      -0.26209200      -0.37917900      -0.17999000
7
Lattice="25.0 0.0 0.0 0.0 25.0 0.0 0.0 0.0 25.0" Properties=species:S:1:pos:R:3:forces:R:3 config_type=cluster magmom=1.0012731 stress="-0.0006810547512890035 0.0008216197783130204 0.0009005436612098143 0.0008216197783130204 -0.001941134304186197 -0.00034587322821082075 0.0009005436612098143 -0.00034587322821082075 -0.0007775984144481657" free_energy=-2.62414713 energy=-2.62414713 pbc="T T T"
Ag       5.00091000      11.11613000      21.29401000      -0.29811500      -0.20070900      -0.10487300
Ag       1.79138000       6.57135000      19.32456000       0.41618900       0.45280000       0.12145400
Ag       3.47542000       9.70810000      19.60527000      -7.41852700      22.94178600       3.36741100
Ag       2.53370000       8.47176000      21.11822000      -3.30519300      -4.16455700       5.26113700
Ag       4.35608000       8.20736000      18.92613000       9.78859800     -19.61369300      -7.92299400
Ag       6.63200000      10.00378000      14.99931000      -0.02041700      -0.10102700       0.16398400
Ag       6.10827000       9.15704000      17.47879000       0.83746500       0.68540100      -0.88611900
7
Lattice="25.0 0.0 0.0 0.0 25.0 0.0 0.0 0.0 25.0" Properties=species:S:1:pos:R:3:forces:R:3 config_type=cluster magmom=1.0015038 stress="3.1638209759102236e-05 -0.0003141850863787115 -4.762895613961515e-05 -0.0003141850863787115 -6.389432892166692e-05 -1.9841757511182875e-05 -4.762895613961515e-05 -1.9841757511182875e-05 6.083598944998412e-05" free_energy=-10.16526029 energy=-10.16526029 pbc="T T T"
Ag      10.53989000      10.45559000       9.21335000       1.94531300       1.28570400       0.39299400
Ag      13.89915000       9.19029000       9.00350000       0.94122000       0.81819500      -0.48056800
Ag       9.85673000       8.79947000      11.90810000       0.37192200       0.23291400      -0.21561200
Ag       8.86104000       8.80381000       8.91024000      -1.32106300      -1.73845500      -0.23328200
Ag      12.87508000       8.21534000      11.08556000      -0.87999900      -0.27890300       0.80304900
Ag      11.82810000       8.15753000       7.97627000      -1.05034800      -0.02812300      -0.20799300
Ag      10.63046000       7.02076000      10.13965000      -0.00704400      -0.29133300      -0.05858800
7
Lattice="25.0 0.0 0.0 0.0 25.0 0.0 0.0 0.0 25.0" Properties=species:S:1:pos:R:3:forces:R:3 config_type=cluster magmom=1.0015676 stress="-0.0003318360741867093 0.00012617834848885595 0.00012308255996241785 0.00012617834848885595 -7.382456994094717e-05 -1.36813880039361e-05 0.00012308255996241785 -1.36813880039361e-05 -0.00015606269418358496" free_energy=-10.56354369 energy=-10.56354369 pbc="T T T"
Ag      21.67373000       8.41352000      15.46529000      -0.50254000      -0.21328100       0.77608900
Ag      21.28582000      10.96149000      14.16045000      -0.93206300      -0.46299300       0.69090800
Ag      23.33305000      11.51399000      12.83775000      -0.38235700       1.30965400      -0.22319200
Ag      23.74231000      10.13543000      15.31781000      -0.02396800       0.85726800       0.42741700
Ag       0.21200000      10.09069000      12.18634000       1.09758400      -0.75547700      -0.73910000
Ag      22.79615000       8.65749000      13.21488000      -0.58394400       0.30598800      -1.53439600
Ag       0.14521000       8.33115000      14.09771000       1.32728800      -1.04115800       0.60227300
7
Lattice="25.0 0.0 0.0 0.0 25.0 0.0 0.0 0.0 25.0" Properties=species:S:1:pos:R:3:forces:R:3 config_type=cluster magmom=1.0017349 stress="1.7782059499641403e-05 -0.00014133897415562639 -0.00012946762379819642 -0.00014133897415562639 0.0001589275468723654 -7.60215811532581e-05 -0.00012946762379819642 -7.60215811532581e-05 -3.62007529301229e-05" free_energy=-9.23291111 energy=-9.23291111 pbc="T T T"
Ag       3.64051000      12.16534000       0.05960000      -0.01457600       0.23696300      -0.47206400
Ag       0.20715000      12.32884000       0.78122000      -0.94598400       0.46570000      -0.64622000
Ag      24.14924000      10.30982000      24.82683000      -0.27656300      -1.49441700      -0.53374600
Ag       2.13744000      12.83876000       2.11045000       1.58487000       0.31821300       1.34528400
Ag       0.91972000       8.06637000       0.23326000       0.11220600       0.60173500       0.23360500
Ag       4.18912000      10.36408000       1.80682000      -0.36413700      -0.60063200       0.14006200
Ag       3.17962000       7.55759000       1.69326000      -0.09581600       0.47243800      -0.06692100
7
Lattice="25.0 0.0 0.0 0.0 25.0 0.0 0.0 0.0 25.0" Properties=species:S:1:pos:R:3:forces:R:3 config_type=cluster magmom=1.0019552 stress="-0.0002616066135022709 -0.0007507349591703641 -0.0003071883546485963 -0.0007507349591703641 -0.0013339977454750289 -0.0003635679065826998 -0.0003071883546485963 -0.0003635679065826998 -0.00019097769623377593" free_energy=-6.09859166 energy=-6.09859166 pbc="T T T"
Ag       8.57906000      21.16067000       0.58866000      -0.24582700       0.95057500      -1.05696300
Ag      12.65264000      20.64586000       5.45355000      -6.92347700      -9.98868100      -3.91744500
Ag      12.63459000      16.22848000       6.14708000       0.09257200      -0.45230300       0.33386700
Ag      13.66584000      22.25858000       6.08032000       7.03047200      11.25855500       4.36231500
Ag      12.38314000      18.28176000       4.73319000      -0.51811800      -0.56867800      -0.80500900
Ag      10.22298000      21.01808000       4.31556000       0.25784700      -0.28723000      -0.05005200
Ag       9.03380000      19.60376000       2.39299000       0.30652900      -0.91223900       1.13328700
7
Lattice="25.0 0.0 0.0 0.0 25.0 0.0 0.0 0.0 25.0" Properties=species:S:1:pos:R:3:forces:R:3 config_type=cluster magmom=1.0015542 stress="-0.00015760434693767818 6.0548880030193497e-05 2.8436315577524125e-05 6.0548880030193497e-05 -9.874067437147315e-06 2.6145681728324967e-05 2.8436315577524125e-05 2.6145681728324967e-05 6.532987602062007e-05" free_energy=-11.03037505 energy=-11.03037505 pbc="T T T"
Ag      18.75153000       4.73817000       9.71962000       0.25215300      -1.15325600      -0.21832800
Ag      20.35309000       6.08141000       8.24819000       1.20138100       0.15104300       0.02395500
Ag      18.80859000       7.66827000      10.09104000       0.03670800       0.31402300      -0.15168200
Ag      18.38860000       7.29918000       7.13111000      -0.46470100       0.44965000      -0.13564200
Ag      17.51180000       5.69796000      11.71603000      -0.33432000       0.46532100       0.49489600
Ag      16.76616000       6.34387000       9.04535000      -0.86194000      -0.00224300      -0.03951500
Ag      20.67442000       6.13791000      11.14434000       0.17071900      -0.22453700       0.02631800
7
Lattice="25.0 0.0 0.0 0.0 25.0 0.0 0.0 0.0 25.0" Properties=species:S:1:pos:R:3:forces:R:3 config_type=cluster magmom=1.0014422 stress="-0.00012991701245526 3.111392299252804e-05 1.2495501270018281e-05 3.111392299252804e-05 -1.4280572880020895e-05 1.6633621820478885e-05 1.2495501270018281e-05 1.6633621820478885e-05 -3.573263974568166e-05" free_energy=-10.38896253 energy=-10.38896253 pbc="T T T"
Ag      14.94853000       5.83348000      17.50620000       0.93829100      -1.34528400      -0.43520300
Ag      11.13058000       6.49202000      18.86478000      -0.97056600      -0.41887000       0.62487400
Ag      14.82639000       7.76800000      19.15579000       0.59145500       0.32641800       0.80854100
Ag      12.53470000       8.47407000      20.21140000      -0.41351700       0.34721300      -0.18176300
Ag      14.55354000       4.47269000      19.83427000      -0.35734300       0.47493000       0.21431900
Ag      12.41877000       5.99876000      21.15892000       0.55614400      -0.61390300       0.06763800
Ag      12.94246000       7.35622000      17.39158000      -0.34446400       1.22949600      -1.09840500
7
Lattice="25.0 0.0 0.0 0.0 25.0 0.0 0.0 0.0 25.0" Properties=species:S:1:pos:R:3:forces:R:3 config_type=cluster magmom=1.0013127 stress="-0.00010138083273172176 0.00017026836895409528 0.00015875278461684067 0.00017026836895409528 8.323676570277914e-05 6.194697807439134e-05 0.00015875278461684067 6.194697807439134e-05 0.00015287328302025864" free_energy=-10.03587565 energy=-10.03587565 pbc="T T T"
Ag       5.81046000      22.12335000      19.91339000      -0.12408400       0.08394700      -0.73588400
Ag       5.20101000      19.56895000      19.44319000       0.05006000      -0.72850700       0.95227100
Ag       5.28553000      21.17884000      14.48001000       2.56088900      -0.97955100      -0.78443300
Ag       4.89718000      20.74681000      17.27550000       0.14792800       0.95424300      -0.77782300
Ag       6.91721000      22.67479000      16.28232000      -0.43811100      -0.09269600       0.16715200
Ag       4.98128000      23.81786000      17.90325000       0.16221600      -0.35770900      -0.19242000
Ag       3.32754000      22.03198000      15.46498000      -2.35889800       1.12027200       1.37113600
7
Lattice="25.0 0.0 0.0 0.0 25.0 0.0 0.0 0.0 25.0" Properties=species:S:1:pos:R:3:forces:R:3 config_type=cluster magmom=1.0015821 stress="0.00023140395084212182 1.0448286276728574e-05 -7.143407194573388e-05 1.0448286276728574e-05 8.573336935313244e-05 2.4516647846469437e-05 -7.143407194573388e-05 2.4516647846469437e-05 -0.00023433121862216104" free_energy=-10.67490571 energy=-10.67490571 pbc="T T T"
Ag      17.95410000       6.59237000      10.58099000      -0.83457700       0.25700800      -0.02751000
Ag      14.87572000       6.16207000       9.69544000      -0.47195400      -0.44705800      -1.66490300
Ag      16.68642000       3.98106000       9.65566000       0.00160400       0.06206600       0.27525400
Ag      19.23754000       5.00361000       8.74950000      -0.07233400       0.02836100      -0.01643800
Ag      18.85004000       4.25329000      11.36210000       0.11290600      -0.43036600       0.30617100
Ag      16.83476000       6.04590000       7.95481000       0.33158000       0.28350500      -0.68537400
Ag      15.35063000       6.51618000      12.02621000       0.93277500       0.24648500       1.81280100
7
Lattice="25.0 0.0 0.0 0.0 25.0 0.0 0.0 0.0 25.0" Properties=species:S:1:pos:R:3:forces:R:3 config_type=cluster magmom=1.0012615 stress="-0.00014597017392703175 0.0002019814768227081 0.00011218488502862568 0.0002019814768227081 -0.0002393431504502453 -0.0001691136897658069 0.00011218488502862568 -0.0001691136897658069 -0.0005594701535167976" free_energy=-9.81828369 energy=-9.81828369 pbc="T T T"
Ag      10.63355000      15.38537000      24.40856000       1.26585700      -0.67012900       1.76377600
Ag      10.66788000      18.24890000       0.47021000       0.15112000       0.07027300       0.25655500
Ag       8.02417000      15.06464000      21.37577000       0.25767200       0.42258100      -0.70979900
Ag       8.17902000      14.84237000      23.88290000      -0.99380000      -1.15893600      -0.09701600
Ag       8.48481000      16.54788000       0.68475000      -0.07266000       0.87253700       1.12869200
Ag       9.60652000      17.45155000      23.24184000      -2.31042300       2.63996400       0.94953700
Ag      10.79433000      15.92314000      21.96120000       1.70223400      -2.17628900      -3.29174400
7
Lattice="25.0 0.0 0.0 0.0 25.0 0.0 0.0 0.0 25.0" Properties=species:S:1:pos:R:3:forces:R:3 config_type=cluster magmom=1.0016322 stress="0.0003177365050713391 -1.0335939112462674e-05 5.5424601037843335e-06 -1.0335939112462674e-05 0.0002828464690576516 1.5628738851211678e-05 5.5424601037843335e-06 1.5628738851211678e-05 0.000211237634856393" free_energy=-9.94839658 energy=-9.94839658 pbc="T T T"
Ag      10.22596000      20.65629000      23.55122000       0.61901100      -0.10150000       0.50457700
Ag      12.94338000      21.17935000      23.41180000      -0.23852800       0.06642400      -0.18417400
Ag       9.32061000      22.07934000       2.02873000       0.43694700      -0.62989700      -0.18272600
Ag      10.62339000      19.18856000       0.94696000      -0.76074500       0.33198300       0.20809800
Ag      11.83879000      21.68242000       0.81509000      -0.48545500      -0.03276200      -0.13449200
Ag       7.31170000      21.88794000       3.68757000      -0.21540800      -0.15483300       0.06933300
Ag       8.06251000      19.48449000       2.50053000       0.64417600       0.52058500      -0.28061700
7
Lattice="25.0 0.0 0.0 0.0 25.0 0.0 0.0 0.0 25.0" Properties=species:S:1:pos:R:3:forces:R:3 config_type=cluster magmom=1.0015543 stress="4.108785457568949e-05 -4.829055610695877e-05 4.5282148708283044e-05 -4.829055610695877e-05 -3.947754522121161e-05 1.7332670842577807e-05 4.5282148708283044e-05 1.7332670842577807e-05 -8.081506016193643e-05" free_energy=-11.53634387 energy=-11.53634387 pbc="T T T"
Ag       8.13738000       2.22430000      23.79169000       0.44244600      -0.26895400       0.00992100
Ag       7.79491000       4.89250000      23.61514000       0.11734900       0.48300300       0.00988100
Ag       6.66726000       3.52446000       0.67214000      -0.12765300       0.21619700       0.53474200
Ag       6.36427000       0.97890000      22.07509000      -0.14761200      -0.30374000      -0.28234900
Ag       7.43764000       3.33930000      21.42397000       0.19719400       0.28441800      -0.69389000
Ag       5.82058000       1.14629000      24.68713000      -0.34071500      -0.43962300       0.45951900
Ag       5.39655000       3.43358000      23.21832000      -0.14100900       0.02869800      -0.03782300
7
Lattice="25.0 0.0 0.0 0.0 25.0 0.0 0.0 0.0 25.0" Properties=species:S:1:pos:R:3:forces:R:3 config_type=cluster magmom=1.0015484 stress="0.00015563827156302493 1.7039319913661294e-05 8.794286358369511e-06 1.7039319913661294e-05 -0.0001351786046483796 -7.704518864990294e-05 8.794286358369511e-06 -7.704518864990294e-05 0.00012471159384427338" free_energy=-11.26141698 energy=-11.26141698 pbc="T T T"
Ag       0.40124000       6.35390000      22.79604000       0.00508000       0.01939600      -0.32710700
Ag       2.72311000       8.13329000      22.48463000      -0.20846000       0.92285400       0.41701600
Ag       0.15256000       7.99875000      20.58763000      -0.02871600       0.89909000       0.35584200
Ag       1.67373000       4.13792000      21.52788000      -0.19039900      -0.29893900      -0.14801200
Ag       2.95210000       5.64229000      23.36481000       0.22869500      -0.26629900       0.16350600
Ag      24.78738000       5.50649000      19.96164000       0.11759900      -0.55066500       0.12612000
Ag       2.39399000       6.57467000      20.50143000       0.07620100      -0.72543700      -0.58736600
7
Lattice="25.0 0.0 0.0 0.0 25.0 0.0 0.0 0.0 25.0" Properties=species:S:1:pos:R:3:forces:R:3 config_type=cluster magmom=1.001376 stress="5.367697848259602e-05 -8.854204845977991e-05 -2.1096300845485415e-06 -8.854204845977991e-05 8.222564122438604e-05 -5.115540879573918e-05 -2.1096300845485415e-06 -5.115540879573918e-05 0.0001361148310172621" free_energy=-10.58647091 energy=-10.58647091 pbc="T T T"
Ag      19.28329000      23.35214000      14.42078000       0.09215400      -0.13045300       0.20323700
Ag      17.57520000      22.98764000      12.32487000      -0.12911900      -0.52315800      -0.14208300
Ag      17.15547000       0.49736000      11.98126000       0.34635200       0.53147200      -0.09174400
Ag      16.55643000       2.67393000      14.08112000       0.63884500       0.09728500       0.05590000
Ag      16.60647000      23.87696000      14.77104000      -0.10694800       0.45452500      -0.36025000
Ag      14.91587000       0.88578000      13.19838000      -0.73826400      -0.78981100       0.29460000
Ag      18.60954000       0.89946000      14.37547000      -0.10302000       0.36014100       0.04034000
7
Lattice="25.0 0.0 0.0 0.0 25.0 0.0 0.0 0.0 25.0" Properties=species:S:1:pos:R:3:forces:R:3 config_type=cluster magmom=1.0017439 stress="1.768219535362727e-05 1.26390559799136e-05 4.42522997025123e-05 1.26390559799136e-05 -0.0004424730649521159 0.0002703759338241369 4.42522997025123e-05 0.0002703759338241369 -4.8621356090630585e-06" free_energy=-9.25008618 energy=-9.25008618 pbc="T T T"
Ag       8.74973000       3.61931000      24.53142000      -0.14052000       0.03846700       0.41442300
Ag       7.06781000       1.51749000       0.07845000       0.08666500       2.85094900      -2.26483000
Ag       6.12617000       4.14013000      24.90456000       0.03467000      -0.20435800       0.52022200
Ag       5.81520000       3.65297000       2.91043000      -0.94503500       1.53099000      -0.72494800
Ag       6.96510000      24.86760000       1.68768000       0.29224800      -3.35609200       1.61966400
Ag       8.03040000       4.79624000       2.51425000       0.76056300       0.14671100      -0.63343000
Ag       6.06666000       1.31968000       3.49894000      -0.08859100      -1.00666700       1.06889900
7
Lattice="25.0 0.0 0.0 0.0 25.0 0.0 0.0 0.0 25.0" Properties=species:S:1:pos:R:3:forces:R:3 config_type=cluster magmom=1.0015209 stress="0.00016164260334212461 -1.3556557821418436e-05 -6.566067600429188e-05 -1.3556557821418436e-05 1.8793183978034492e-05 -2.8242828794621743e-05 -6.566067600429188e-05 -2.8242828794621743e-05 -1.6926972749395394e-05" free_energy=-11.48630905 energy=-11.48630905 pbc="T T T"
Ag      10.69589000       1.34530000      24.26951000      -0.09521900       0.13006300       0.24386800
Ag       8.99461000       3.22573000       0.58917000       0.00531600       0.62042900       0.23582600
Ag       9.57194000       1.01092000       1.88054000       0.19240100      -0.19150200       0.43978100
Ag       8.84571000       0.05472000      22.79335000      -0.14324700      -0.22014000      -0.43578300
Ag       8.57902000       2.77189000      23.02953000      -0.05362900      -0.07906500      -0.39557000
Ag       9.57439000      23.94598000       0.16363000      -0.02849200      -0.20633200       0.01427100
Ag       7.49918000       0.98325000       0.02969000       0.12287000      -0.05345300      -0.10239400
7
Lattice="25.0 0.0 0.0 0.0 25.0 0.0 0.0 0.0 25.0" Properties=species:S:1:pos:R:3:forces:R:3 config_type=cluster magmom=1.0012586 stress="3.874104714435739e-05 1.582846714323994e-05 -8.379850152410862e-05 1.582846714323994e-05 0.00013228254441396978 6.037411777466876e-05 -8.379850152410862e-05 6.037411777466876e-05 0.00011978704314395149" free_energy=-9.07126543 energy=-9.07126543 pbc="T T T"
Ag       6.35655000      14.87961000       3.54432000      -0.05374600      -0.03132300      -0.28917300
Ag       8.20385000      15.04418000       5.20484000       0.59290200       0.08669300       0.48955900
Ag       3.59102000      11.61085000       2.66874000      -0.28418100       0.16642300      -0.92370300
Ag       2.30199000       9.61814000       1.10387000       0.38365600       0.35639800       0.51172500
Ag       4.01529000      14.29135000       2.71227000      -0.85837800      -0.23893200       0.18770300
Ag       3.25275000      10.28567000       4.81655000      -0.25113400      -0.56715300       0.41176800
Ag       2.25404000      12.77653000       4.87612000       0.47088100       0.22789400      -0.38787800
7
Lattice="25.0 0.0 0.0 0.0 25.0 0.0 0.0 0.0 25.0" Properties=species:S:1:pos:R:3:forces:R:3 config_type=cluster magmom=1.0015193 stress="8.626389762883251e-05 3.196900974277405e-05 -0.00010608693061263775 3.196900974277405e-05 7.424275105238136e-05 -9.699305181622582e-06 -0.00010608693061263775 -9.699305181622582e-06 -2.1464549883912523e-05" free_energy=-11.42106899 energy=-11.42106899 pbc="T T T"
Ag       7.98406000       6.83738000      18.39729000       0.21100600      -0.02034900       0.09648300
Ag       5.35542000       7.20536000      17.89100000      -0.66020700       0.29886600      -0.66436300
Ag       6.17823000       7.81334000      20.28155000       0.31308600       0.14412100       0.74256700
Ag       8.25882000       4.08518000      18.71974000       0.28698600      -0.11147600       0.57067600
Ag       6.48993000       4.95002000      17.04206000      -0.42419700      -0.22736200      -0.61416000
Ag       8.13527000       5.78671000      20.94699000      -0.18989600       0.06777300      -0.07340500
Ag       5.58212000       5.16814000      19.72860000       0.46322200      -0.15157300      -0.05779800
7
Lattice="25.0 0.0 0.0 0.0 25.0 0.0 0.0 0.0 25.0" Properties=species:S:1:pos:R:3:forces:R:3 config_type=cluster magmom=1.0015194 stress="0.0001827139381511065 -4.063222440950001e-06 2.5777432689897857e-06 -4.063222440950001e-06 0.00020756762749037363 -3.6600209514179425e-05 2.5777432689897857e-06 -3.6600209514179425e-05 0.00021526964975171356" free_energy=-11.02289201 energy=-11.02289201 pbc="T T T"
Ag      16.32784000      16.18095000      11.25248000       0.28481100      -0.13358800      -0.18458200
Ag      17.95809000      15.45529000       8.06747000       0.29276500      -0.19959700       0.60315100
Ag      17.80324000      17.92680000       9.53904000      -0.22192600       0.02522500      -0.16038500
Ag      19.12503000      15.98460000      10.71341000      -0.01402500       0.05769100       0.12070700
Ag      16.80577000      13.65440000       9.93553000      -0.01337700       0.56062000      -0.14611300
Ag      19.55956000      13.48982000      10.00449000      -0.26787200      -0.06601300      -0.33210500
Ag      15.50454000      16.29050000       8.67567000      -0.06037500      -0.24433800       0.09932700
7
Lattice="25.0 0.0 0.0 0.0 25.0 0.0 0.0 0.0 25.0" Properties=species:S:1:pos:R:3:forces:R:3 config_type=cluster magmom=1.0015959 stress="7.621506793616046e-05 -1.8306346266215595e-05 -2.307485923839041e-05 -1.8306346266215595e-05 2.3280829039544555e-05 5.174211065357221e-06 -2.307485923839041e-05 5.174211065357221e-06 5.440723505032437e-05" free_energy=-11.02994259 energy=-11.02994259 pbc="T T T"
Ag       7.95533000       9.52072000       0.65930000      -0.06270100       0.69389300      -0.24717900
Ag       9.58841000       8.95908000       2.88973000      -0.15700600      -0.01496800       0.17749300
Ag       7.49076000       7.41124000       2.03838000      -0.30508900      -0.55890100       0.07678300
Ag       8.55140000       6.74888000       4.37360000       0.23078300       0.10805700       0.16476700
Ag      10.13326000       6.21104000       2.20204000       0.15259000       0.01064000       0.03284300
Ag       9.20810000       6.88531000      24.80584000      -0.33898400      -0.38326900      -0.29380700
Ag      10.60175000       9.00918000       0.37365000       0.48040700       0.14454800       0.08910100
7
Lattice="25.0 0.0 0.0 0.0 25.0 0.0 0.0 0.0 25.0" Properties=species:S:1:pos:R:3:forces:R:3 config_type=cluster magmom=1.0015393 stress="-0.0008238916876348419 0.000265289103886542 0.00023814478069807571 0.000265289103886542 -0.0002983378947080939 -0.00018486725879953623 0.00023814478069807571 -0.00018486725879953623 -3.992069236914932e-05" free_energy=-7.08896149 energy=-7.08896149 pbc="T T T"
Ag      17.69039000      11.10131000      13.00862000       5.06471700      -3.84385000      -4.19731400
Ag      19.30641000      10.93246000      14.79249000       1.31204500      -0.06311700       1.47689900
Ag      17.74404000      13.84876000      13.74081000       1.86886800       1.43883400      -0.09775800
Ag      20.83195000       9.76899000      16.70437000       0.19423000       0.01848100       0.34482000
Ag      14.13903000      12.84136000      15.51987000      -0.05492100      -0.02266600      -0.09290100
Ag      16.01851000      12.22442000      13.77249000      -8.12404900       2.48025300       3.13103700
Ag      22.10942000       9.96733000      19.16816000      -0.26089100      -0.00793600      -0.56478300
7
Lattice="25.0 0.0 0.0 0.0 25.0 0.0 0.0 0.0 25.0" Properties=species:S:1:pos:R:3:forces:R:3 config_type=cluster magmom=1.0016478 stress="5.686638964592236e-05 -0.00013788741960901293 4.380291104544871e-05 -0.00013788741960901293 0.00010872708897288637 -2.1751659303703157e-05 4.380291104544871e-05 -2.1751659303703157e-05 -0.00037578878145117916" free_energy=-8.79979593 energy=-8.79979593 pbc="T T T"
Ag       3.82853000      10.90103000      21.05028000      -1.26717500      -1.13928600       2.23914300
Ag       6.98782000       7.55766000      23.37451000      -0.08718400      -0.42024000       0.53451900
Ag       6.17849000      11.61712000      20.40187000       0.47582100       0.76368200      -0.39818100
Ag       7.04072000       9.36857000      21.66009000      -0.04930100       0.59575200      -0.60359400
Ag       4.59525000      12.54214000      22.81597000       0.36553300       0.81174800       0.52818500
Ag       4.97921000      14.38966000      20.84939000       0.26120500      -0.61093600       0.30135700
Ag       3.89227000      11.08687000      18.69821000       0.30110200      -0.00072000      -2.60142800
7
Lattice="25.0 0.0 0.0 0.0 25.0 0.0 0.0 0.0 25.0" Properties=species:S:1:pos:R:3:forces:R:3 config_type=cluster magmom=1.0013748 stress="0.00016394572020957555 -7.12468266719574e-05 6.646583068153081e-05 -7.12468266719574e-05 0.00039647938420348216 7.275727188042114e-05 6.646583068153081e-05 7.275727188042114e-05 0.000256575957146809" free_energy=-10.74810369 energy=-10.74810369 pbc="T T T"
Ag      16.39243000      13.22164000      14.30803000      -0.25007000      -0.34008400       0.59510100
Ag      18.10121000      11.39096000      12.87843000      -0.13917100       0.52181400       0.47608200
Ag      18.39773000      14.31054000      13.07949000       0.74687500      -0.02715900      -0.06026800
Ag      15.68963000      15.66244000      15.33727000       0.10244300      -0.30742000      -0.10746500
Ag      19.33580000      12.55639000      15.20769000      -0.54166400       0.30662100      -0.29051100
Ag      18.35821000      15.25853000      15.74422000      -0.06476900      -0.54358200      -0.36574200
Ag      16.90095000      10.65987000      15.33022000       0.14635600       0.38981100      -0.24719600
7
Lattice="25.0 0.0 0.0 0.0 25.0 0.0 0.0 0.0 25.0" Properties=species:S:1:pos:R:3:forces:R:3 config_type=cluster magmom=1.0032281 stress="0.00012207767699315067 4.4732895905205306e-05 -0.00011890074884807607 4.4732895905205306e-05 1.0535667404490939e-05 -4.6280790168424355e-05 -0.00011890074884807607 -4.6280790168424355e-05 0.0002192205250283977" free_energy=-8.76621785 energy=-8.76621785 pbc="T T T"